LAMMPS data file Created by LigParGen - (Written by Leela S. Dodda)

      29 atoms
      29 bonds
      51 angles
      69 dihedrals
      17 impropers
 
      29 atom types
      29 bond types
      51 angle types
      69 dihedral types
      17 improper types
 
   -3.789750    46.210250 xlo xhi
   -7.470340    42.529660 ylo yhi
   -5.647710    44.352290 zlo zhi

Masses

       1     12.011  
       2     32.060  
       3     15.999  
       4     15.999  
       5     14.007  
       6     12.011  
       7     12.011  
       8     12.011  
       9     12.011  
      10     12.011  
      11     12.011  
      12     12.011  
      13     12.011  
      14     12.011  
      15      1.008  
      16      1.008  
      17      1.008  
      18      1.008  
      19      1.008  
      20      1.008  
      21      1.008  
      22      1.008  
      23      1.008  
      24      1.008  
      25      1.008  
      26      1.008  
      27      1.008  
      28      1.008  
      29      1.008  

Pair Coeffs 

       1      0.066  3.5000000 
       2      0.250  3.5500000 
       3      0.170  2.9600000 
       4      0.170  2.9600000 
       5      0.170  3.2500000 
       6      0.066  3.5000000 
       7      0.066  3.5000000 
       8      0.066  3.5000000 
       9      0.070  3.5500000 
      10      0.070  3.5500000 
      11      0.070  3.5500000 
      12      0.070  3.5500000 
      13      0.070  3.5500000 
      14      0.070  3.5500000 
      15      0.030  2.5000000 
      16      0.030  2.5000000 
      17      0.030  2.5000000 
      18      0.000  0.0000000 
      19      0.030  2.5000000 
      20      0.030  2.5000000 
      21      0.030  2.5000000 
      22      0.030  2.5000000 
      23      0.030  2.5000000 
      24      0.030  2.5000000 
      25      0.030  2.4200000 
      26      0.030  2.4200000 
      27      0.030  2.4200000 
      28      0.030  2.4200000 
      29      0.030  2.4200000 

Bond Coeffs 

       1   340.0000     1.7700 
       2   700.0000     1.4400 
       3   700.0000     1.4400 
       4   434.0000     1.6700 
       5   337.0000     1.4490 
       6   268.0000     1.5290 
       7   268.0000     1.5290 
       8   317.0000     1.5100 
       9   469.0000     1.4000 
      10   469.0000     1.4000 
      11   469.0000     1.4000 
      12   469.0000     1.4000 
      13   469.0000     1.4000 
      14   340.0000     1.0900 
      15   340.0000     1.0900 
      16   340.0000     1.0900 
      17   434.0000     1.0100 
      18   340.0000     1.0900 
      19   340.0000     1.0900 
      20   340.0000     1.0900 
      21   340.0000     1.0900 
      22   340.0000     1.0900 
      23   340.0000     1.0900 
      24   367.0000     1.0800 
      25   367.0000     1.0800 
      26   367.0000     1.0800 
      27   367.0000     1.0800 
      28   367.0000     1.0800 
      29   469.0000     1.4000 

Angle Coeffs 

       1     74.000    108.900
       2     74.000    108.900
       3    100.000    103.000
       4     50.000    120.000
       5     80.000    109.700
       6     58.350    112.700
       7     63.000    114.000
       8     70.000    120.000
       9     63.000    120.000
      10     63.000    120.000
      11     63.000    120.000
      12     70.000    120.000
      13     35.000    109.500
      14     35.000    109.500
      15     35.000    109.500
      16    100.000    111.000
      17     35.000    109.500
      18     35.000    109.500
      19     37.500    110.700
      20     37.500    110.700
      21     37.500    110.700
      22     37.500    110.700
      23     35.000    120.000
      24     35.000    120.000
      25     35.000    120.000
      26     35.000    120.000
      27     35.000    120.000
      28     33.000    107.800
      29     63.000    120.000
      30     33.000    107.800
      31     35.000    120.000
      32     33.000    107.800
      33     35.000    109.500
      34     37.500    110.700
      35     35.000    120.000
      36     35.000    109.500
      37     33.000    107.800
      38    104.000    119.000
      39    120.000    107.000
      40    120.000    107.000
      41     33.000    107.800
      42     37.500    110.700
      43     33.000    107.800
      44     63.000    120.000
      45     37.500    110.700
      46     35.000    120.000
      47     35.000    120.000
      48     63.000    120.000
      49     37.500    110.700
      50     35.000    120.000
      51     38.000    118.400

Dihedral Coeffs  

       1      2.074     -2.966      2.473      0.000 
       2      2.929     -2.533      0.497      0.000 
       3      0.845     -0.962      0.713      0.000 
       4      1.300     -0.200      0.200      0.000 
       5      0.000      0.000      0.000      0.000 
       6      0.000      7.250      0.000      0.000 
       7      0.000      7.250      0.000      0.000 
       8      0.000      7.250      0.000      0.000 
       9      0.000      0.000      0.350      0.000 
      10      0.000      7.250      0.000      0.000 
      11      0.000      0.000      0.300      0.000 
      12      0.000      7.250      0.000      0.000 
      13      0.000      0.000      0.300      0.000 
      14      0.000      7.250      0.000      0.000 
      15      0.000      0.000      0.300      0.000 
      16      0.000      0.000      0.000      0.000 
      17      0.000      0.000      0.300      0.000 
      18      0.000      0.000      0.000      0.000 
      19      1.362     -1.457      0.149      0.000 
      20      0.000      0.000      0.300      0.000 
      21      0.000      0.000      0.000      0.000 
      22      0.000      0.000      0.000      0.000 
      23      0.000      7.250      0.000      0.000 
      24      0.000      0.000      0.000      0.000 
      25      0.000      0.000      0.300      0.000 
      26      0.000      7.250      0.000      0.000 
      27      0.000      7.250      0.000      0.000 
      28      0.000      0.000      0.300      0.000 
      29      0.000      0.000      0.462      0.000 
      30      0.000      7.250      0.000      0.000 
      31      0.000      7.250      0.000      0.000 
      32      0.000      0.000      0.000      0.000 
      33      0.000      0.000      0.464      0.000 
      34      0.000      0.000      0.300      0.000 
      35      0.000      0.000      0.000      0.000 
      36      0.000      0.000      0.000      0.000 
      37      0.000      7.250      0.000      0.000 
      38      0.000      0.000      0.000      0.000 
      39      0.000      7.250      0.000      0.000 
      40      1.671     -4.901      0.669      0.000 
      41      0.000      0.000      0.464      0.000 
      42      0.000      0.000      0.000      0.000 
      43      0.000      0.000      0.000      0.000 
      44      0.000      7.250      0.000      0.000 
      45      0.000      7.250      0.000      0.000 
      46      0.000      0.000      0.300      0.000 
      47      0.000      0.000      0.300      0.000 
      48      0.000      0.000      0.462      0.000 
      49      0.000      7.250      0.000      0.000 
      50      0.000      0.000      0.300      0.000 
      51      0.000      7.250      0.000      0.000 
      52      0.000      7.250      0.000      0.000 
      53      0.000      7.250      0.000      0.000 
      54      0.000      7.250      0.000      0.000 
      55      0.000      0.000      0.350      0.000 
      56      0.000      0.000      0.350      0.000 
      57      0.000      7.250      0.000      0.000 
      58      0.000      0.000      0.300      0.000 
      59      0.000      0.000      0.000      0.000 
      60      0.000      7.250      0.000      0.000 
      61      0.000      7.250      0.000      0.000 
      62      0.000      0.000      0.350      0.000 
      63      1.362     -1.457      0.149      0.000 
      64      0.000      7.250      0.000      0.000 
      65      0.000      0.000      0.000      0.000 
      66      0.000      0.000      0.350      0.000 
      67      0.000      0.000      0.350      0.000 
      68      0.000      0.000      0.000      0.000 
      69      0.000      0.000      0.000      0.000 

Improper Coeffs 

       1      0.000      -1       2 
       2      0.000      -1       2 
       3      2.500      -1       2 
       4      0.000      -1       2 
       5      0.000      -1       2 
       6      2.500      -1       2 
       7      0.000      -1       2 
       8      0.000      -1       2 
       9      0.000      -1       2 
      10      0.000      -1       2 
      11      0.000      -1       2 
      12      0.000      -1       2 
      13      2.500      -1       2 
      14      2.500      -1       2 
      15      2.500      -1       2 
      16      2.500      -1       2 
      17      2.500      -1       2 

Atoms 

     1      1      1 -0.56560000    1.000  1.00000  0.00000
     2      1      2 1.56250000   -0.782  1.00000  0.00000
     3      1      3 -0.55460000   -1.247  1.00000  1.36618
     4      1      4 -0.55460000   -1.256  1.96726 -0.96242
     5      1      5 -1.62150000   -1.137 -0.53296 -0.60531
     6      1      6 0.30230000   -0.897 -0.75885 -2.04146
     7      1      7 -0.17360000   -1.265 -2.18780 -2.42416
     8      1      8 -0.13610000   -2.768 -2.45859 -2.32336
     9      1      9 -0.08790000   -3.086 -3.85266 -2.79722
    10      1     10 -0.14150000   -3.067 -4.92627 -1.89718
    11      1     11 -0.14470000   -3.308 -6.22427 -2.34600
    12      1     12 -0.14730000   -3.568 -6.45855 -3.69495
    13      1     13 -0.14510000   -3.588 -5.39548 -4.59604
    14      1     14 -0.14320000   -3.349 -4.09558 -4.15110
    15      1     15 0.16710000    1.332  1.95236  0.41741
    16      1     16 0.16710000    1.358  0.91073 -1.02654
    17      1     17 0.16710000    1.355  0.17377  0.61758
    18      1     18 0.66650000   -2.061 -0.80059 -0.26308
    19      1     19 0.10740000    0.167 -0.61647 -2.25181
    20      1     20 0.10740000   -1.474 -0.05067 -2.64303
    21      1     21 0.11240000   -0.711 -2.89809 -1.79680
    22      1     22 0.11240000   -0.934 -2.35732 -3.45754
    23      1     23 0.09820000   -3.329 -1.72816 -2.91951
    24      1     24 0.09820000   -3.118 -2.34507 -1.29054
    25      1     25 0.15040000   -2.864 -4.75558 -0.84188
    26      1     26 0.15010000   -3.291 -7.05254 -1.64234
    27      1     27 0.14880000   -3.754 -7.47034 -4.04363
    28      1     28 0.14920000   -3.790 -5.57828 -5.64771
    29      1     29 0.14870000   -3.367 -3.27378 -4.86359

Bonds 

     1      1      2      1
     2      2      3      2
     3      3      4      2
     4      4      5      2
     5      5      6      5
     6      6      7      6
     7      7      8      7
     8      8      9      8
     9      9     10      9
    10     10     11     10
    11     11     12     11
    12     12     13     12
    13     13     14      9
    14     14     15      1
    15     15     16      1
    16     16     17      1
    17     17     18      5
    18     18     19      6
    19     19     20      6
    20     20     21      7
    21     21     22      7
    22     22     23      8
    23     23     24      8
    24     24     25     10
    25     25     26     11
    26     26     27     12
    27     27     28     13
    28     28     29     14
    29     29     14     13

Angles 

     1      1      1      2      3
     2      2      1      2      4
     3      3      1      2      5
     4      4      2      5      6
     5      5      5      6      7
     6      6      6      7      8
     7      7      7      8      9
     8      8      8      9     10
     9      9      9     10     11
    10     10     10     11     12
    11     11     11     12     13
    12     12      8      9     14
    13     13      2      1     15
    14     14      2      1     16
    15     15      2      1     17
    16     16      2      5     18
    17     17      5      6     19
    18     18      5      6     20
    19     19      6      7     21
    20     20      6      7     22
    21     21      7      8     23
    22     22      7      8     24
    23     23      9     10     25
    24     24     10     11     26
    25     25     11     12     27
    26     26     12     13     28
    27     27      9     14     29
    28     28     16      1     17
    29     29     10      9     14
    30     30     23      8     24
    31     31     13     14     29
    32     32     21      7     22
    33     33      9      8     23
    34     34      7      6     19
    35     35     11     10     25
    36     36      9      8     24
    37     37     15      1     16
    38     38      3      2      4
    39     39      3      2      5
    40     40      4      2      5
    41     41     19      6     20
    42     42      8      7     22
    43     43     15      1     17
    44     44      9     14     13
    45     45      8      7     21
    46     46     12     11     26
    47     47     14     13     28
    48     48     12     13     14
    49     49      7      6     20
    50     50     13     12     27
    51     51      6      5     18

Dihedrals

     1      1      6      5      2      1 
     2      2      7      6      5      2 
     3      3      8      7      6      5 
     4      4      9      8      7      6 
     5      5     10      9      8      7 
     6      6     11     10      9      8 
     7      7     12     11     10      9 
     8      8     13     12     11     10 
     9      9     15      1      2      3 
    10     10     28     13     14      9 
    11     11     19      6      7      8 
    12     12     26     11     10     25 
    13     13     22      7      6     20 
    14     14     25     10     11     12 
    15     15     24      8      7     21 
    16     16     20      6      5     18 
    17     17     22      7      6     19 
    18     18     18      5      6      7 
    19     19     20      6      5      2 
    20     20     24      8      7     22 
    21     21      6      5      2      4 
    22     22     23      8      9     14 
    23     23     27     12     13     14 
    24     24     24      8      9     14 
    25     25     23      8      7      6 
    26     26     12     13     14      9 
    27     27     29     14     13     12 
    28     28     21      7      6     20 
    29     29     22      7      8      9 
    30     30     29     14      9     10 
    31     31     13     14      9      8 
    32     32     17      1      2      5 
    33     33     21      7      6      5 
    34     34     21      7      6     19 
    35     35     18      5      2      4 
    36     36     18      5      2      3 
    37     37     28     13     12     11 
    38     38     23      8      9     10 
    39     39     27     12     11     26 
    40     40     18      5      2      1 
    41     41     22      7      6      5 
    42     42      6      5      2      3 
    43     43     14      9      8      7 
    44     44     29     14      9      8 
    45     45     27     12     11     10 
    46     46     20      6      7      8 
    47     47     24      8      7      6 
    48     48     21      7      8      9 
    49     49     13     14      9     10 
    50     50     23      8      7     21 
    51     51     25     10      9      8 
    52     52     25     10      9     14 
    53     53     26     11     10      9 
    54     54     14     13     12     11 
    55     55     15      1      2      4 
    56     56     16      1      2      3 
    57     57     14      9     10     11 
    58     58     23      8      7     22 
    59     59     19      6      5     18 
    60     60     26     11     12     13 
    61     61     28     13     12     27 
    62     62     17      1      2      4 
    63     63     19      6      5      2 
    64     64     29     14     13     28 
    65     65     16      1      2      5 
    66     66     16      1      2      4 
    67     67     17      1      2      3 
    68     68     24      8      9     10 
    69     69     15      1      2      5 

Impropers

     1      1      2      1      3      4 
     2      2      2      1      3      5 
     3      3      9     10     14      8 
     4      4      1      2     15     16 
     5      5      1     17     15      2 
     6      6      5     18      6      2 
     7      7      6     19      5      7 
     8      8      6     20      5      7 
     9      9      7     21      6      8 
    10     10      7      8     22      6 
    11     11      8      9      7     23 
    12     12      8      9      7     24 
    13     13     10     25     11      9 
    14     14     11     26     12     10 
    15     15     12     27     13     11 
    16     16     13     12     28     14 
    17     17     14      9     13     29 
