LAMMPS data file Created by LigParGen - (Written by Leela S. Dodda)

      26 atoms
      27 bonds
      44 angles
      60 dihedrals
      14 impropers
 
      26 atom types
      27 bond types
      44 angle types
      60 dihedral types
      14 improper types
 
   -2.099630    47.900370 xlo xhi
   -0.029610    49.970390 ylo yhi
   -1.666400    48.333600 zlo zhi

Masses

       1     15.999  
       2     32.060  
       3     14.007  
       4     12.011  
       5     14.007  
       6     14.007  
       7     12.011  
       8     14.007  
       9     12.011  
      10     12.011  
      11     12.011  
      12     12.011  
      13     12.011  
      14     12.011  
      15     12.011  
      16     15.999  
      17      1.008  
      18      1.008  
      19      1.008  
      20      1.008  
      21      1.008  
      22      1.008  
      23      1.008  
      24      1.008  
      25      1.008  
      26      1.008  

Pair Coeffs 

       1      0.170  2.9600000 
       2      0.250  3.5500000 
       3      0.170  3.2500000 
       4      0.070  3.5500000 
       5      0.170  3.2500000 
       6      0.170  3.2500000 
       7      0.070  3.5500000 
       8      0.170  3.2500000 
       9      0.070  3.5500000 
      10      0.070  3.5500000 
      11      0.070  3.5500000 
      12      0.070  3.5500000 
      13      0.070  3.5500000 
      14      0.070  3.5500000 
      15      0.066  3.5000000 
      16      0.170  2.9600000 
      17      0.000  0.0000000 
      18      0.030  2.4200000 
      19      0.030  2.4200000 
      20      0.030  2.4200000 
      21      0.030  2.4200000 
      22      0.030  2.4200000 
      23      0.030  2.4200000 
      24      0.030  2.5000000 
      25      0.030  2.5000000 
      26      0.030  2.5000000 

Bond Coeffs 

       1   700.0000     1.4400 
       2   434.0000     1.6700 
       3   427.0000     1.3810 
       4   410.0000     1.3940 
       5   400.0000     1.2800 
       6   520.0000     1.3700 
       7   400.0000     1.3490 
       8   385.0000     1.4400 
       9   469.0000     1.4000 
      10   469.0000     1.4000 
      11   469.0000     1.4000 
      12   469.0000     1.4000 
      13   469.0000     1.4000 
      14   340.0000     1.7700 
      15   700.0000     1.4400 
      16   434.0000     1.0100 
      17   367.0000     1.0800 
      18   367.0000     1.0800 
      19   367.0000     1.0800 
      20   367.0000     1.0800 
      21   367.0000     1.0800 
      22   367.0000     1.0800 
      23   340.0000     1.0900 
      24   340.0000     1.0900 
      25   340.0000     1.0900 
      26   427.0000     1.3810 
      27   469.0000     1.4000 

Angle Coeffs 

       1    120.000    107.000
       2     48.370    118.330
       3     56.880    120.670
       4     70.000    117.000
       5     70.000    120.000
       6     59.410    111.360
       7     63.000    112.400
       8     70.000    108.700
       9     63.000    120.000
      10     63.000    120.000
      11     63.000    120.000
      12     70.000    108.700
      13     74.000    108.900
      14    104.000    119.000
      15    100.000    111.000
      16     35.000    130.700
      17     35.000    120.000
      18     35.000    120.000
      19     35.000    120.000
      20     35.000    120.000
      21     35.000    120.000
      22     35.000    109.500
      23     35.000    109.500
      24     35.000    109.500
      25     33.000    107.800
      26     63.000    120.000
      27    100.000    103.000
      28     74.000    108.900
      29     70.000    111.000
      30     35.000    120.000
      31     63.000    120.000
      32     35.000    120.000
      33     33.000    107.800
      34    120.000    107.000
      35     35.000    120.000
      36     35.000    121.600
      37     35.000    120.000
      38     70.000    106.300
      39     63.000    120.000
      40     35.000    120.000
      41     35.000    119.800
      42     70.000    125.200
      43     33.000    107.800
      44     56.000    113.100

Dihedral Coeffs  

       1      0.000      0.000      0.000      0.000 
       2      1.362     -1.457      0.149      0.000 
       3      0.000      4.800      0.000      0.000 
       4      0.000     10.000      0.000      0.000 
       5      0.000      2.170      0.000      0.000 
       6      0.000      7.250      0.000      0.000 
       7      0.000      7.250      0.000      0.000 
       8      0.000      7.250      0.000      0.000 
       9      0.000      0.000      0.350      0.000 
      10      0.000      0.000      0.000      0.000 
      11      0.000      7.250      0.000      0.000 
      12      2.074     -2.966      2.473      0.000 
      13      0.000      2.170      0.000      0.000 
      14      0.000      0.000      0.000      0.000 
      15      0.000      7.250      0.000      0.000 
      16      0.000      0.000      0.350      0.000 
      17      0.000      7.250      0.000      0.000 
      18      0.000      7.250      0.000      0.000 
      19      0.000      7.250      0.000      0.000 
      20      0.000      7.250      0.000      0.000 
      21      0.000      0.000      0.350      0.000 
      22      0.000      0.000      0.000      0.000 
      23      0.000      7.250      0.000      0.000 
      24      0.000      7.250      0.000      0.000 
      25      0.000      7.250      0.000      0.000 
      26      0.000      7.250      0.000      0.000 
      27      0.000      7.250      0.000      0.000 
      28      0.000      0.000      0.350      0.000 
      29      0.000      0.000      0.000      0.000 
      30      0.000      0.000      0.350      0.000 
      31      0.000      0.000      0.350      0.000 
      32      0.000      7.250      0.000      0.000 
      33      0.000      0.000      0.000      0.000 
      34      0.000      7.250      0.000      0.000 
      35      0.000     10.750      0.000      0.000 
      36      0.000      7.250      0.000      0.000 
      37      0.000      2.170      0.000      0.000 
      38      1.671     -4.901      0.669      0.000 
      39      0.000      2.100      0.000      0.000 
      40      0.000      5.000      0.000      0.000 
      41      0.000      0.000      0.000      0.000 
      42      0.000      0.000      0.000      0.000 
      43      0.000      7.250      0.000      0.000 
      44      0.000      2.170      0.000      0.000 
      45      0.000      7.250      0.000      0.000 
      46      0.000      7.250      0.000      0.000 
      47      0.000      7.250      0.000      0.000 
      48      0.000      7.250      0.000      0.000 
      49      0.000      7.250      0.000      0.000 
      50      0.000      2.170      0.000      0.000 
      51      2.929     -2.533      0.497      0.000 
      52      0.000      7.250      0.000      0.000 
      53      0.000      5.000      0.000      0.000 
      54      0.000      7.250      0.000      0.000 
      55      0.000      5.000      0.000      0.000 
      56      0.000      5.000      0.000      0.000 
      57      0.000      7.250      0.000      0.000 
      58      0.000      7.250      0.000      0.000 
      59      0.000      7.250      0.000      0.000 
      60      0.000      7.250      0.000      0.000 

Improper Coeffs 

       1      2.500      -1       2 
       2      0.000      -1       2 
       3      2.500      -1       2 
       4      0.000      -1       2 
       5      0.000      -1       2 
       6      2.500      -1       2 
       7      2.500      -1       2 
       8      2.500      -1       2 
       9      2.500      -1       2 
      10      2.500      -1       2 
      11      2.500      -1       2 
      12      2.500      -1       2 
      13      0.000      -1       2 
      14      0.000      -1       2 

Atoms 

     1      1      1 -0.53150000    1.000  1.00000  0.00000
     2      1      2 1.51740000   -0.447  1.00000  0.00000
     3      1      3 -1.35370000   -0.997  1.00000  1.59996
     4      1      4 0.27840000   -0.582  2.04477  2.41208
     5      1      5 -0.25890000   -1.375  3.12173  2.66201
     6      1      6 0.08500000   -0.686  3.96667  3.41568
     7      1      7 -0.05720000    0.612  2.18673  3.07091
     8      1      8 -0.16440000    0.512  3.39691  3.71358
     9      1      9 0.08420000    1.447  4.03134  4.56816
    10      1     10 -0.15190000    2.636  3.38550  4.93738
    11      1     11 -0.12970000    3.544  4.03215  5.78375
    12      1     12 -0.13880000    3.271  5.31338  6.25979
    13      1     13 -0.13180000    2.090  5.95618  5.89363
    14      1     14 -0.12430000    1.178  5.32171  5.05090
    15      1     15 -0.61010000   -1.021  2.58124 -0.59904
    16      1     16 -0.53150000   -1.202 -0.02961 -0.68387
    17      1     17 0.63150000   -2.010  0.87334  1.58652
    18      1     18 0.24060000    1.477  1.54570  3.12498
    19      1     19 0.16350000    2.888  2.38719  4.59100
    20      1     20 0.16380000    4.466  3.53263  6.07251
    21      1     21 0.16010000    3.979  5.81021  6.91791
    22      1     22 0.16490000    1.878  6.95532  6.26661
    23      1     23 0.18730000    0.264  5.84744  4.77988
    24      1     24 0.16900000   -0.497  3.38253 -0.07522
    25      1     25 0.16900000   -2.100  2.64486 -0.44356
    26      1     26 0.16900000   -0.797  2.63682 -1.66640

Bonds 

     1      1      2      1
     2      2      3      2
     3      3      4      3
     4      4      5      4
     5      5      6      5
     6      6      7      4
     7      7      8      6
     8      8      9      8
     9      9     10      9
    10     10     11     10
    11     11     12     11
    12     12     13     12
    13     13     14      9
    14     14     15      2
    15     15     16      2
    16     16     17      3
    17     17     18      7
    18     18     19     10
    19     19     20     11
    20     20     21     12
    21     21     22     13
    22     22     23     14
    23     23     24     15
    24     24     25     15
    25     25     26     15
    26     26      8      7
    27     27     14     13

Angles 

     1      1      1      2      3
     2      2      2      3      4
     3      3      3      4      5
     4      4      4      5      6
     5      5      3      4      7
     6      6      5      6      8
     7      7      6      8      9
     8      8      8      9     10
     9      9      9     10     11
    10     10     10     11     12
    11     11     11     12     13
    12     12      8      9     14
    13     13      1      2     15
    14     14      1      2     16
    15     15      2      3     17
    16     16      4      7     18
    17     17      9     10     19
    18     18     10     11     20
    19     19     11     12     21
    20     20     12     13     22
    21     21      9     14     23
    22     22      2     15     24
    23     23      2     15     25
    24     24      2     15     26
    25     25     24     15     26
    26     26     10      9     14
    27     27      3      2     15
    28     28     15      2     16
    29     29      5      4      7
    30     30     12     11     20
    31     31     12     13     14
    32     32     13     12     21
    33     33     25     15     26
    34     34      3      2     16
    35     35     11     10     19
    36     36      8      7     18
    37     37     13     14     23
    38     38      4      7      8
    39     39      9     14     13
    40     40     14     13     22
    41     41      4      3     17
    42     42      7      8      9
    43     43     24     15     25
    44     44      6      8      7

Dihedrals

     1      1      4      3      2      1 
     2      2      5      4      3      2 
     3      3      6      5      4      3 
     4      4      8      6      5      4 
     5      5     10      9      8      6 
     6      6     11     10      9      8 
     7      7     12     11     10      9 
     8      8     13     12     11     10 
     9      9     24     15      2      1 
    10     10     26     15      2      3 
    11     11     20     11     10     19 
    12     12     15      2      3      4 
    13     13     14      9      8      6 
    14     14     24     15      2      3 
    15     15     21     12     13     14 
    16     16     26     15      2      1 
    17     17     18      7      4      3 
    18     18     20     11     10      9 
    19     19     22     13     12     11 
    20     20     13     14      9      8 
    21     21     25     15      2     16 
    22     22     16      2      3      4 
    23     23     19     10     11     12 
    24     24     14      9     10     11 
    25     25     12     13     14      9 
    26     26     21     12     11     20 
    27     27     21     12     11     10 
    28     28     26     15      2     16 
    29     29     17      3      2     16 
    30     30     24     15      2     16 
    31     31     25     15      2      1 
    32     32     23     14     13     12 
    33     33     25     15      2      3 
    34     34     23     14      9     10 
    35     35      8      7      4      3 
    36     36     18      7      4      5 
    37     37     10      9      8      7 
    38     38     17      3      2     15 
    39     39     17      3      4      5 
    40     40      9      8      7      4 
    41     41     17      3      2      1 
    42     42     17      3      4      7 
    43     43     22     13     12     21 
    44     44     14      9      8      7 
    45     45     14     13     12     11 
    46     46      7      8      6      5 
    47     47     13     14      9     10 
    48     48     19     10      9     14 
    49     49      9      8      6      5 
    50     50      8      7      4      5 
    51     51      7      4      3      2 
    52     52     22     13     14      9 
    53     53     18      7      8      9 
    54     54     20     11     12     13 
    55     55      6      8      7      4 
    56     56     18      7      8      6 
    57     57     23     14      9      8 
    58     58      7      4      5      6 
    59     59     23     14     13     22 
    60     60     19     10      9      8 

Impropers

     1      1      4      3      5      7 
     2      2      8      9      6      7 
     3      3      9     10     14      8 
     4      4      2      1      3     15 
     5      5      2      1      3     16 
     6      6      3     17      2      4 
     7      7      7     18      4      8 
     8      8     10      9     19     11 
     9      9     11     12     10     20 
    10     10     12     13     11     21 
    11     11     13     12     22     14 
    12     12     14      9     13     23 
    13     13     15     25      2     24 
    14     14     15     26     24      2 
