LAMMPS data file Created by LigParGen - (Written by Leela S. Dodda)

      36 atoms
      37 bonds
      69 angles
     101 dihedrals
      27 impropers
 
      36 atom types
      37 bond types
      69 angle types
     101 dihedral types
      27 improper types
 
   -3.365340    46.634660 xlo xhi
   -0.993250    49.006750 ylo yhi
   -1.003640    48.996360 zlo zhi

Masses

       1     12.011  
       2     32.060  
       3     14.007  
       4     12.011  
       5     12.011  
       6     32.060  
       7     12.011  
       8     15.999  
       9     15.999  
      10     12.011  
      11     12.011  
      12     12.011  
      13     12.011  
      14     12.011  
      15     12.011  
      16     12.011  
      17     12.011  
      18     15.999  
      19     15.999  
      20      1.008  
      21      1.008  
      22      1.008  
      23      1.008  
      24      1.008  
      25      1.008  
      26      1.008  
      27      1.008  
      28      1.008  
      29      1.008  
      30      1.008  
      31      1.008  
      32      1.008  
      33      1.008  
      34      1.008  
      35      1.008  
      36      1.008  

Pair Coeffs 

       1      0.066  3.5000000 
       2      0.250  3.5500000 
       3      0.170  3.2500000 
       4      0.083  3.4500000 
       5      0.083  3.4500000 
       6      0.250  3.5500000 
       7      0.083  3.4500000 
       8      0.170  2.9600000 
       9      0.170  2.9600000 
      10      0.066  3.5000000 
      11      0.066  3.5000000 
      12      0.070  3.5500000 
      13      0.070  3.5500000 
      14      0.070  3.5500000 
      15      0.070  3.5500000 
      16      0.070  3.5500000 
      17      0.070  3.5500000 
      18      0.170  2.9600000 
      19      0.170  2.9600000 
      20      0.030  2.5000000 
      21      0.030  2.5000000 
      22      0.030  2.5000000 
      23      0.000  0.0000000 
      24      0.030  2.5000000 
      25      0.030  2.5000000 
      26      0.030  2.5000000 
      27      0.030  2.5000000 
      28      0.030  2.5000000 
      29      0.030  2.5000000 
      30      0.030  2.5000000 
      31      0.030  2.5000000 
      32      0.030  2.4200000 
      33      0.030  2.4200000 
      34      0.030  2.4200000 
      35      0.030  2.4200000 
      36      0.030  2.4200000 

Bond Coeffs 

       1   340.0000     1.7700 
       2   434.0000     1.6700 
       3   337.0000     1.4490 
       4   260.0000     1.5200 
       5   222.0000     1.8100 
       6   260.0000     1.5200 
       7   700.0000     1.4400 
       8   700.0000     1.4400 
       9   280.0000     1.5100 
      10   268.0000     1.5290 
      11   317.0000     1.5100 
      12   469.0000     1.4000 
      13   469.0000     1.4000 
      14   469.0000     1.4000 
      15   469.0000     1.4000 
      16   469.0000     1.4000 
      17   700.0000     1.4400 
      18   700.0000     1.4400 
      19   340.0000     1.0900 
      20   340.0000     1.0900 
      21   340.0000     1.0900 
      22   434.0000     1.0100 
      23   340.0000     1.0880 
      24   340.0000     1.0880 
      25   340.0000     1.0880 
      26   340.0000     1.0880 
      27   340.0000     1.0900 
      28   340.0000     1.0900 
      29   340.0000     1.0900 
      30   340.0000     1.0900 
      31   367.0000     1.0800 
      32   367.0000     1.0800 
      33   367.0000     1.0800 
      34   367.0000     1.0800 
      35   367.0000     1.0800 
      36   340.0000     1.7700 
      37   469.0000     1.4000 

Angle Coeffs 

       1    100.000    103.000
       2     50.000    120.000
       3     37.500    126.000
       4     55.000    128.000
       5     37.500    126.000
       6     74.000    108.900
       7     74.000    108.900
       8     80.000    109.700
       9     58.350    112.700
      10     63.000    114.000
      11     70.000    120.000
      12     63.000    120.000
      13     63.000    120.000
      14     63.000    120.000
      15     70.000    120.000
      16     74.000    108.900
      17     74.000    108.900
      18     35.000    109.500
      19     35.000    109.500
      20     35.000    109.500
      21    100.000    111.000
      22     37.500    117.200
      23     37.500    117.200
      24     37.500    117.200
      25     37.500    117.200
      26     37.500    110.700
      27     37.500    110.700
      28     37.500    110.700
      29     37.500    110.700
      30     35.000    120.000
      31     35.000    120.000
      32     35.000    120.000
      33     35.000    120.000
      34     35.000    120.000
      35     35.000    109.500
      36     35.000    114.300
      37     37.500    108.000
      38     35.000    120.000
      39     74.000    108.900
      40     33.000    107.800
      41    120.000    107.000
      42     30.000     83.000
      43     37.500    108.000
      44     35.000    120.000
      45     62.000    102.000
      46     35.000    120.000
      47     33.000    107.800
      48     40.000    113.000
      49     35.000    109.500
      50     33.000    107.800
      51     35.000    114.300
      52     35.000    120.000
      53     63.000    120.000
      54    104.000    119.000
      55    120.000    107.000
      56     74.000    108.900
      57     33.000    107.800
      58     37.500    110.700
      59     55.000    128.000
      60     37.500    108.000
      61     63.000    120.000
      62     37.500    117.200
      63     37.500    110.700
      64    104.000    119.000
      65     63.000    120.000
      66     37.500    108.000
      67     33.000    107.800
      68     37.500    117.200
      69     35.000    120.000

Dihedral Coeffs  

       1      2.074     -2.966      2.473      0.000 
       2      2.929     -2.533      0.497      0.000 
       3      0.000      0.000      0.000      0.000 
       4      0.845     -0.962      0.713      0.000 
       5     -1.697     -0.456      0.585      0.000 
       6      0.000      0.000      0.000      0.000 
       7      0.000      7.250      0.000      0.000 
       8      0.000      7.250      0.000      0.000 
       9      0.000      7.250      0.000      0.000 
      10      0.000      0.000      0.000      0.000 
      11      0.000      0.000      0.350      0.000 
      12      0.000      0.000      0.000      0.000 
      13      0.000      7.250      0.000      0.000 
      14      0.000      7.250      0.000      0.000 
      15      0.000      0.000      0.000      0.000 
      16      0.000      0.000      0.000      0.000 
      17      0.000      0.000      0.000      0.000 
      18      0.000      0.000      0.000      0.000 
      19      0.000      0.000      0.350      0.000 
      20      0.000      7.250      0.000      0.000 
      21      0.000      0.000      0.000      0.000 
      22      0.000      7.250      0.000      0.000 
      23      0.000      0.000      0.000      0.000 
      24      0.000      0.000      0.350      0.000 
      25      0.000      0.000      0.350      0.000 
      26      0.000      7.250      0.000      0.000 
      27      0.000      0.000      0.000      0.000 
      28      0.000      7.250      0.000      0.000 
      29      0.000      0.000      0.000      0.000 
      30      0.000      7.250      0.000      0.000 
      31      0.000      0.000      0.000      0.000 
      32      0.000      0.000      0.000      0.000 
      33      0.000      0.000      0.000      0.000 
      34      0.000      0.000      0.000      0.000 
      35      0.000      7.250      0.000      0.000 
      36      0.000      0.000      0.462      0.000 
      37      0.000      7.250      0.000      0.000 
      38      0.000      0.000      0.300      0.000 
      39      1.671     -4.901      0.669      0.000 
      40      0.000      7.250      0.000      0.000 
      41      0.000      0.000      0.000      0.000 
      42      0.000      0.000      0.000      0.000 
      43      0.000      0.000      0.300      0.000 
      44      0.000      0.000      0.000      0.000 
      45      0.000      0.000      0.000      0.000 
      46      0.000      0.000      0.350      0.000 
      47      0.000      0.000      0.350      0.000 
      48      0.000      0.000      0.300      0.000 
      49      0.000      0.000      0.000      0.000 
      50      0.000      7.250      0.000      0.000 
      51      0.000      7.250      0.000      0.000 
      52      2.929     -2.533      0.497      0.000 
      53      0.000      0.000      0.000      0.000 
      54      0.000      0.000      0.300      0.000 
      55      0.000      0.000      0.350      0.000 
      56      0.000      0.000      0.000      0.000 
      57      0.000      0.000      0.350      0.000 
      58      0.000      7.250      0.000      0.000 
      59      0.000      0.000      0.000      0.000 
      60      0.000      0.000      0.000      0.000 
      61      0.000      0.000      0.350      0.000 
      62      0.000      0.000      0.300      0.000 
      63      0.000      0.000      0.300      0.000 
      64      0.000      0.000      0.000      0.000 
      65      0.000      7.250      0.000      0.000 
      66      0.000      7.250      0.000      0.000 
      67      0.000      0.000      0.300      0.000 
      68      0.000      0.000      0.000      0.000 
      69      0.000      7.250      0.000      0.000 
      70      0.000      0.000      0.350      0.000 
      71      0.000      0.000      0.350      0.000 
      72      0.000      0.000      0.000      0.000 
      73      0.000      7.250      0.000      0.000 
      74      0.000      0.000      0.350      0.000 
      75      0.000      0.000      0.000      0.000 
      76      0.000      0.000      0.462      0.000 
      77      0.000      0.000      0.300      0.000 
      78      2.929     -2.533      0.497      0.000 
      79      0.000      0.000      0.000      0.000 
      80      0.000      7.250      0.000      0.000 
      81      0.000      0.000      0.300      0.000 
      82      0.000      7.250      0.000      0.000 
      83      0.000      0.000      0.300      0.000 
      84      0.000      0.000      0.000      0.000 
      85      0.000      0.000      0.000      0.000 
      86      0.000      0.000      0.000      0.000 
      87      0.000      0.000      0.350      0.000 
      88      0.000      0.000      0.000      0.000 
      89      0.000      0.000      0.350      0.000 
      90      0.000      0.000      0.000      0.000 
      91      0.000      0.000      0.350      0.000 
      92      0.000      0.000      0.000      0.000 
      93      0.000      0.000      0.350      0.000 
      94      0.000      7.250      0.000      0.000 
      95      0.000      0.000      0.000      0.000 
      96      0.000      0.000      0.000      0.000 
      97      0.000      0.000      0.000      0.000 
      98      0.000      0.000      0.350      0.000 
      99      0.000      0.000      0.350      0.000 
     100      0.000      0.000      0.000      0.000 
     101      0.000      7.250      0.000      0.000 

Improper Coeffs 

       1      0.000      -1       2 
       2      0.000      -1       2 
       3      0.000      -1       2 
       4      0.000      -1       2 
       5      2.500      -1       2 
       6      0.000      -1       2 
       7      0.000      -1       2 
       8      0.000      -1       2 
       9      0.000      -1       2 
      10      2.500      -1       2 
      11      0.000      -1       2 
      12      0.000      -1       2 
      13      0.000      -1       2 
      14      0.000      -1       2 
      15      0.000      -1       2 
      16      0.000      -1       2 
      17      0.000      -1       2 
      18      0.000      -1       2 
      19      2.500      -1       2 
      20      2.500      -1       2 
      21      2.500      -1       2 
      22      2.500      -1       2 
      23      2.500      -1       2 
      24      0.000      -1       2 
      25      0.000      -1       2 
      26      0.000      -1       2 
      27      0.000      -1       2 

Atoms 

     1      1      1 -0.60080000    1.000  1.00000  0.00000
     2      1      2 1.61500000   -0.785  1.00000  0.00000
     3      1      3 -1.75150000   -1.185  1.00000  1.63687
     4      1      4 0.56200000   -1.001  2.10687  2.65059
     5      1      5 -0.53030000   -1.509  3.50772  2.14175
     6      1      6 1.32250000   -2.021  3.93452  3.77219
     7      1      7 -0.52970000   -2.041  2.16212  3.82348
     8      1      8 -0.53960000   -3.365  4.46889  3.79445
     9      1      9 -0.53960000   -0.940  4.49070  4.55839
    10      1     10 -0.20000000    0.454  2.06298  3.15103
    11      1     11 -0.12040000    0.842  0.71448  3.78737
    12      1     12 -0.09790000    2.311  0.72556  4.14638
    13      1     13 -0.14260000    2.805  1.67713  5.05211
    14      1     14 -0.14170000    4.172  1.78331  5.29067
    15      1     15 -0.14480000    5.059  0.94058  4.62746
    16      1     16 -0.14480000    4.577 -0.00743  3.72620
    17      1     17 -0.14400000    3.204 -0.16880  3.54566
    18      1     18 -0.52710000   -1.248  2.24645 -0.56568
    19      1     19 -0.52710000   -1.231 -0.28479 -0.49146
    20      1     20 0.16640000    1.359  2.00298  0.24197
    21      1     21 0.16640000    1.337  0.73701 -1.00364
    22      1     22 0.16640000    1.361  0.25954  0.71351
    23      1     23 0.71040000   -1.396  0.05576  1.97009
    24      1     24 0.19940000   -2.373  3.46406  1.46819
    25      1     25 0.19940000   -0.750  4.16489  1.70837
    26      1     26 0.18270000   -3.033  1.76373  3.58808
    27      1     27 0.18270000   -1.717  1.76931  4.79018
    28      1     28 0.12540000    0.628  2.85297  3.88535
    29      1     29 0.12540000    1.138  2.29861  2.33117
    30      1     30 0.09910000    0.642 -0.11321  3.09986
    31      1     31 0.09910000    0.255  0.51674  4.68873
    32      1     32 0.15620000    2.127  2.37212  5.54653
    33      1     33 0.15390000    4.540  2.52569  5.99391
    34      1     34 0.15120000    6.126  1.02523  4.81371
    35      1     35 0.15110000    5.276 -0.62051  3.16294
    36      1     36 0.14710000    2.840 -0.99325  2.93459

Bonds 

     1      1      2      1
     2      2      3      2
     3      3      4      3
     4      4      5      4
     5      5      6      5
     6      6      7      4
     7      7      8      6
     8      8      9      6
     9      9     10      4
    10     10     11     10
    11     11     12     11
    12     12     13     12
    13     13     14     13
    14     14     15     14
    15     15     16     15
    16     16     17     12
    17     17     18      2
    18     18     19      2
    19     19     20      1
    20     20     21      1
    21     21     22      1
    22     22     23      3
    23     23     24      5
    24     24     25      5
    25     25     26      7
    26     26     27      7
    27     27     28     10
    28     28     29     10
    29     29     30     11
    30     30     31     11
    31     31     32     13
    32     32     33     14
    33     33     34     15
    34     34     35     16
    35     35     36     17
    36     36      7      6
    37     37     17     16

Angles 

     1      1      1      2      3
     2      2      2      3      4
     3      3      3      4      5
     4      4      4      5      6
     5      5      3      4      7
     6      6      5      6      8
     7      7      5      6      9
     8      8      3      4     10
     9      9      4     10     11
    10     10     10     11     12
    11     11     11     12     13
    12     12     12     13     14
    13     13     13     14     15
    14     14     14     15     16
    15     15     11     12     17
    16     16      1      2     18
    17     17      1      2     19
    18     18      2      1     20
    19     19      2      1     21
    20     20      2      1     22
    21     21      2      3     23
    22     22      4      5     24
    23     23      4      5     25
    24     24      4      7     26
    25     25      4      7     27
    26     26      4     10     28
    27     27      4     10     29
    28     28     10     11     30
    29     29     10     11     31
    30     30     12     13     32
    31     31     13     14     33
    32     32     14     15     34
    33     33     15     16     35
    34     34     12     17     36
    35     35     12     11     31
    36     36     24      5     25
    37     37      6      5     24
    38     38     17     16     35
    39     39      7      6      9
    40     40     20      1     21
    41     41      3      2     18
    42     42      5      4      7
    43     43      6      7     26
    44     44     14     13     32
    45     45      5      6      7
    46     46     15     14     33
    47     47     28     10     29
    48     48      4      3     23
    49     49     12     11     30
    50     50     30     11     31
    51     51     26      7     27
    52     52     16     15     34
    53     53     13     12     17
    54     54     18      2     19
    55     55      3      2     19
    56     56      7      6      8
    57     57     21      1     22
    58     58     11     10     29
    59     59      4      7      6
    60     60      6      7     27
    61     61     12     17     16
    62     62      7      4     10
    63     63     11     10     28
    64     64      8      6      9
    65     65     15     16     17
    66     66      6      5     25
    67     67     20      1     22
    68     68      5      4     10
    69     69     16     17     36

Dihedrals

     1      1      4      3      2      1 
     2      2      5      4      3      2 
     3      3      6      5      4      3 
     4      4     11     10      4      3 
     5      5     12     11     10      4 
     6      6     13     12     11     10 
     7      7     14     13     12     11 
     8      8     15     14     13     12 
     9      9     16     15     14     13 
    10     10     20      1      2      3 
    11     11     27      7      6      9 
    12     12     27      7      4      3 
    13     13     35     16     15     34 
    14     14     32     13     12     11 
    15     15     17     12     11     10 
    16     16     23      3      2     18 
    17     17     25      5      4      3 
    18     18     23      3      4     10 
    19     19     20      1      2     18 
    20     20     36     17     16     35 
    21     21      8      6      5      4 
    22     22     36     17     12     11 
    23     23      9      6      5      4 
    24     24     24      5      6      8 
    25     25     25      5      6      7 
    26     26     33     14     15     16 
    27     27     11     10      4      5 
    28     28     17     12     13     14 
    29     29     24      5      4      7 
    30     30     35     16     17     12 
    31     31     23      3      4      5 
    32     32      6      7      4      3 
    33     33     27      7      4      5 
    34     34      9      6      7      4 
    35     35     36     17     16     15 
    36     36     29     10     11     12 
    37     37     36     17     12     13 
    38     38     31     11     10      4 
    39     39     23      3      2      1 
    40     40     35     16     15     14 
    41     41     29     10      4      3 
    42     42     30     11     12     13 
    43     43     28     10      4      7 
    44     44      8      6      7      4 
    45     45     30     11     12     17 
    46     46     20      1      2     19 
    47     47     21      1      2     18 
    48     48     30     11     10     28 
    49     49     25      5      4     10 
    50     50     15     16     17     12 
    51     51     33     14     13     12 
    52     52      7      4      3      2 
    53     53     21      1      2      3 
    54     54     29     10      4      5 
    55     55     25      5      6      9 
    56     56     28     10      4      3 
    57     57     24      5      6      7 
    58     58     33     14     13     32 
    59     59     31     11     12     13 
    60     60     26      7      4      3 
    61     61     22      1      2     19 
    62     62     30     11     10     29 
    63     63     31     11     10     28 
    64     64     26      7      4     10 
    65     65     16     17     12     11 
    66     66     34     15     16     17 
    67     67     29     10      4      7 
    68     68     24      5      4      3 
    69     69     16     17     12     13 
    70     70     27      7      6      8 
    71     71     26      7      6      9 
    72     72     22      1      2      3 
    73     73     32     13     14     15 
    74     74     27      7      6      5 
    75     75     23      3      2     19 
    76     76     28     10     11     12 
    77     77     30     11     10      4 
    78     78     10      4      3      2 
    79     79     31     11     12     17 
    80     80     34     15     14     13 
    81     81     28     10      4      5 
    82     82     34     15     14     33 
    83     83     31     11     10     29 
    84     84     19      2      3      4 
    85     85     11     10      4      7 
    86     86     25      5      4      7 
    87     87     26      7      6      8 
    88     88     26      7      4      5 
    89     89     22      1      2     18 
    90     90     23      3      4      7 
    91     91     21      1      2     19 
    92     92     18      2      3      4 
    93     93     26      7      6      5 
    94     94     32     13     12     17 
    95     95     27      7      4     10 
    96     96     10      4      5      6 
    97     97     24      5      4     10 
    98     98     25      5      6      8 
    99     99     24      5      6      9 
   100    100     10      4      7      6 
   101    101     17     16     15     14 

Impropers

     1      1      4      3      5      7 
     2      2      6      5      7      8 
     3      3      6      9      5      7 
     4      4      4     10      3      5 
     5      5     12     17     11     13 
     6      6      2      1     18      3 
     7      7      2      1     19      3 
     8      8      1      2     20     21 
     9      9      1      2     20     22 
    10     10      3      2      4     23 
    11     11      5      4      6     24 
    12     12      5     25      4      6 
    13     13      7     26      4      6 
    14     14      7     27      4      6 
    15     15     10      4     11     28 
    16     16     10     11      4     29 
    17     17     11     10     12     30 
    18     18     11     10     12     31 
    19     19     13     12     14     32 
    20     20     14     33     13     15 
    21     21     15     34     14     16 
    22     22     16     17     35     15 
    23     23     17     12     36     16 
    24     24      4      5      6      7 
    25     25      4      5      6      7 
    26     26      4      5      6      7 
    27     27      4      5      6      7 
