LAMMPS data file Created by LigParGen - (Written by Leela S. Dodda)

      35 atoms
      36 bonds
      66 angles
      95 dihedrals
      25 impropers
 
      35 atom types
      36 bond types
      66 angle types
      95 dihedral types
      25 improper types
 
   -7.445180    42.554820 xlo xhi
   -5.582830    44.417170 ylo yhi
   -1.034040    48.965960 zlo zhi

Masses

       1     12.011  
       2     32.060  
       3     14.007  
       4     12.011  
       5     12.011  
       6     32.060  
       7     15.999  
       8     12.011  
       9     12.011  
      10     12.011  
      11     12.011  
      12     12.011  
      13     12.011  
      14     12.011  
      15     12.011  
      16     12.011  
      17     15.999  
      18     15.999  
      19      1.008  
      20      1.008  
      21      1.008  
      22      1.008  
      23      1.008  
      24      1.008  
      25      1.008  
      26      1.008  
      27      1.008  
      28      1.008  
      29      1.008  
      30      1.008  
      31      1.008  
      32      1.008  
      33      1.008  
      34      1.008  
      35      1.008  

Pair Coeffs 

       1      0.066  3.5000000 
       2      0.250  3.5500000 
       3      0.170  3.2500000 
       4      0.083  3.4500000 
       5      0.083  3.4500000 
       6      0.395  3.5600000 
       7      0.170  2.9600000 
       8      0.083  3.4500000 
       9      0.066  3.5000000 
      10      0.066  3.5000000 
      11      0.070  3.5500000 
      12      0.070  3.5500000 
      13      0.070  3.5500000 
      14      0.070  3.5500000 
      15      0.070  3.5500000 
      16      0.070  3.5500000 
      17      0.170  2.9600000 
      18      0.170  2.9600000 
      19      0.030  2.5000000 
      20      0.030  2.5000000 
      21      0.030  2.5000000 
      22      0.000  0.0000000 
      23      0.030  2.5000000 
      24      0.030  2.5000000 
      25      0.030  2.5000000 
      26      0.030  2.5000000 
      27      0.030  2.5000000 
      28      0.030  2.5000000 
      29      0.030  2.5000000 
      30      0.030  2.5000000 
      31      0.030  2.4200000 
      32      0.030  2.4200000 
      33      0.030  2.4200000 
      34      0.030  2.4200000 
      35      0.030  2.4200000 

Bond Coeffs 

       1   340.0000     1.7700 
       2   434.0000     1.6700 
       3   337.0000     1.4490 
       4   260.0000     1.5200 
       5   340.0000     1.7900 
       6   700.0000     1.5300 
       7   260.0000     1.5200 
       8   280.0000     1.5100 
       9   268.0000     1.5290 
      10   317.0000     1.5100 
      11   469.0000     1.4000 
      12   469.0000     1.4000 
      13   469.0000     1.4000 
      14   469.0000     1.4000 
      15   469.0000     1.4000 
      16   700.0000     1.4400 
      17   700.0000     1.4400 
      18   340.0000     1.0900 
      19   340.0000     1.0900 
      20   340.0000     1.0900 
      21   434.0000     1.0100 
      22   340.0000     1.0880 
      23   340.0000     1.0880 
      24   340.0000     1.0880 
      25   340.0000     1.0880 
      26   340.0000     1.0900 
      27   340.0000     1.0900 
      28   340.0000     1.0900 
      29   340.0000     1.0900 
      30   367.0000     1.0800 
      31   367.0000     1.0800 
      32   367.0000     1.0800 
      33   367.0000     1.0800 
      34   367.0000     1.0800 
      35   340.0000     1.7900 
      36   469.0000     1.4000 

Angle Coeffs 

       1    100.000    103.000
       2     50.000    120.000
       3     37.500    126.000
       4     50.000    108.600
       5     74.000    107.000
       6     37.500    126.000
       7     80.000    109.700
       8     58.350    112.700
       9     63.000    114.000
      10     70.000    120.000
      11     63.000    120.000
      12     63.000    120.000
      13     63.000    120.000
      14     70.000    120.000
      15     74.000    108.900
      16     74.000    108.900
      17     35.000    109.500
      18     35.000    109.500
      19     35.000    109.500
      20    100.000    111.000
      21     37.500    117.200
      22     37.500    117.200
      23     37.500    117.200
      24     37.500    117.200
      25     37.500    110.700
      26     37.500    110.700
      27     37.500    110.700
      28     37.500    110.700
      29     35.000    120.000
      30     35.000    120.000
      31     35.000    120.000
      32     35.000    120.000
      33     35.000    120.000
      34     35.000    109.500
      35     33.000    107.800
      36    120.000    107.000
      37     35.000    120.000
      38     33.000    107.800
      39     35.000    109.500
      40    120.000    107.000
      41     37.500    117.200
      42     35.000    109.500
      43     40.000    113.000
      44     33.000    107.800
      45     35.000    120.000
      46     50.000    108.600
      47     33.000    107.800
      48     35.000    120.000
      49     30.000     83.000
      50     33.000    107.800
      51     35.000    120.000
      52     74.000    107.000
      53     63.000    120.000
      54    104.000    119.000
      55     37.500    117.200
      56     35.000    114.300
      57     63.000    120.000
      58     35.000    109.500
      59     62.000     96.000
      60     37.500    110.700
      61     35.000    120.000
      62     35.000    114.300
      63     35.000    109.500
      64     63.000    120.000
      65     37.500    110.700
      66     35.000    109.500

Dihedral Coeffs  

       1      2.074     -2.966      2.473      0.000 
       2      2.929     -2.533      0.497      0.000 
       3      0.000      0.000      0.000      0.000 
       4      0.000      0.000      0.000      0.000 
       5      0.845     -0.962      0.713      0.000 
       6     -1.697     -0.456      0.585      0.000 
       7      0.000      0.000      0.000      0.000 
       8      0.000      7.250      0.000      0.000 
       9      0.000      7.250      0.000      0.000 
      10      0.000      7.250      0.000      0.000 
      11      0.000      0.000      0.000      0.000 
      12      0.000      0.000      0.000      0.000 
      13      0.000      7.250      0.000      0.000 
      14      0.000      7.250      0.000      0.000 
      15      0.000      0.000      0.000      0.000 
      16      0.000      0.000      0.350      0.000 
      17      0.000      0.000      0.350      0.000 
      18      0.000      0.000      0.000      0.000 
      19      0.000      0.000      0.647      0.000 
      20      0.000      0.000      0.647      0.000 
      21      0.000      0.000      0.000      0.000 
      22      0.000      7.250      0.000      0.000 
      23      0.000      7.250      0.000      0.000 
      24      0.000      0.000      0.350      0.000 
      25      2.929     -2.533      0.497      0.000 
      26      0.000      0.000      0.300      0.000 
      27      0.000      0.000      0.000      0.000 
      28      0.000      0.000      0.350      0.000 
      29      0.000      0.000      0.647      0.000 
      30      0.000      7.250      0.000      0.000 
      31      0.000      0.000      0.000      0.000 
      32      0.000      0.000      0.300      0.000 
      33      0.000      7.250      0.000      0.000 
      34      0.000      7.250      0.000      0.000 
      35      0.000      7.250      0.000      0.000 
      36      0.000      0.000      0.000      0.000 
      37      0.000      0.000      0.000      0.000 
      38      0.000      0.000      0.000      0.000 
      39      0.000      7.250      0.000      0.000 
      40      0.000      7.250      0.000      0.000 
      41      0.000      7.250      0.000      0.000 
      42      0.000      0.000      0.000      0.000 
      43      0.000      0.000      0.000      0.000 
      44      0.000      0.000      0.300      0.000 
      45      0.000      0.000      0.000      0.000 
      46      0.000      7.250      0.000      0.000 
      47      0.000      0.000      0.350      0.000 
      48      0.000      7.250      0.000      0.000 
      49      0.000      0.000      0.000      0.000 
      50      0.000      0.000      0.000      0.000 
      51      2.929     -2.533      0.497      0.000 
      52      0.000      0.000      0.000      0.000 
      53      0.000      0.000      0.000      0.000 
      54      0.000      0.000      0.350      0.000 
      55      0.000      0.000      0.300      0.000 
      56      0.000      7.250      0.000      0.000 
      57      0.000      0.000      0.000      0.000 
      58      0.000      0.000      0.000      0.000 
      59      0.000      0.000      0.000      0.000 
      60      0.000      0.000      0.000      0.000 
      61      0.000      0.000      0.000      0.000 
      62      0.000      0.000      0.350      0.000 
      63      0.000      0.000      0.000      0.000 
      64      0.000      0.000      0.000      0.000 
      65      0.000      0.000      0.000      0.000 
      66      0.000      7.250      0.000      0.000 
      67      0.000      0.000      0.000      0.000 
      68      0.000      0.000      0.300      0.000 
      69      0.000      0.000      0.300      0.000 
      70      0.000      0.000      0.000      0.000 
      71      0.000      0.000      0.000      0.000 
      72      0.000      0.000      0.462      0.000 
      73      0.000      0.000      0.300      0.000 
      74      0.000      0.000      0.462      0.000 
      75      0.000      0.000      0.000      0.000 
      76      0.000      7.250      0.000      0.000 
      77      0.000      0.000      0.000      0.000 
      78      0.000      0.000      0.000      0.000 
      79      1.671     -4.901      0.669      0.000 
      80      0.000      7.250      0.000      0.000 
      81      0.000      0.000      0.647      0.000 
      82      0.000      0.000      0.000      0.000 
      83      0.000      0.000      0.350      0.000 
      84      0.000      7.250      0.000      0.000 
      85      0.000      0.000      0.000      0.000 
      86      0.000      0.000      0.300      0.000 
      87      0.000      7.250      0.000      0.000 
      88      0.000      0.000      0.350      0.000 
      89      0.000      0.000      0.300      0.000 
      90      0.000      0.000      0.300      0.000 
      91      0.000      7.250      0.000      0.000 
      92      0.000      7.250      0.000      0.000 
      93      0.000      0.000      0.000      0.000 
      94      0.000      0.000      0.350      0.000 
      95      0.000      0.000      0.000      0.000 

Improper Coeffs 

       1      0.000      -1       2 
       2      0.000      -1       2 
       3      2.500      -1       2 
       4      0.000      -1       2 
       5      0.000      -1       2 
       6      0.000      -1       2 
       7      0.000      -1       2 
       8      2.500      -1       2 
       9      0.000      -1       2 
      10      0.000      -1       2 
      11      0.000      -1       2 
      12      0.000      -1       2 
      13      0.000      -1       2 
      14      0.000      -1       2 
      15      0.000      -1       2 
      16      0.000      -1       2 
      17      2.500      -1       2 
      18      2.500      -1       2 
      19      2.500      -1       2 
      20      2.500      -1       2 
      21      2.500      -1       2 
      22      0.000      -1       2 
      23      0.000      -1       2 
      24      0.000      -1       2 
      25      0.000      -1       2 

Atoms 

     1      1      1 -0.56640000    1.000  1.00000  0.00000
     2      1      2 1.55330000   -0.776  1.00000  0.00000
     3      1      3 -1.57140000   -1.107  1.00000  1.66929
     4      1      4 0.44670000   -2.523  1.05820  2.31093
     5      1      5 -0.32340000   -3.405  2.30462  1.94992
     6      1      6 0.61220000   -2.624  3.25697  3.34631
     7      1      7 -0.65150000   -1.192  3.71913  2.89160
     8      1      8 -0.31830000   -2.463  1.48405  3.83601
     9      1      9 -0.15500000   -3.207 -0.31655  2.28013
    10      1     10 -0.15570000   -3.863 -0.70233  0.95803
    11      1     11 -0.08170000   -4.480 -2.07203  1.10118
    12      1     12 -0.14950000   -5.844 -2.20871  1.37510
    13      1     13 -0.14910000   -6.385 -3.47149  1.61291
    14      1     14 -0.15060000   -5.566 -4.60013  1.57803
    15      1     15 -0.14680000   -4.206 -4.46837  1.30538
    16      1     16 -0.13590000   -3.667 -3.21511  1.05350
    17      1     17 -0.55430000   -1.237  2.26339 -0.52746
    18      1     18 -0.55430000   -1.178 -0.26478 -0.57400
    19      1     19 0.17160000    1.364  1.82193  0.61532
    20      1     20 0.17160000    1.330  1.12939 -1.03404
    21      1     21 0.17160000    1.342  0.03373  0.37788
    22      1     22 0.65920000   -0.578  1.80196  2.05605
    23      1     23 0.17150000   -4.483  2.17140  2.08875
    24      1     24 0.17150000   -3.235  2.75037  0.96848
    25      1     25 0.16190000   -3.290  1.15552  4.47507
    26      1     26 0.16190000   -1.523  1.23780  4.34126
    27      1     27 0.11450000   -2.489 -1.08179  2.60250
    28      1     28 0.11450000   -4.009 -0.33451  3.03322
    29      1     29 0.11760000   -3.167 -0.74250  0.12972
    30      1     30 0.11760000   -4.621  0.03360  0.66673
    31      1     31 0.14380000   -6.489 -1.33433  1.40524
    32      1     32 0.14580000   -7.445 -3.57262  1.82651
    33      1     33 0.14600000   -5.991 -5.58283  1.76505
    34      1     34 0.14860000   -3.566 -5.34603  1.29091
    35      1     35 0.16250000   -2.608 -3.12222  0.81911

Bonds 

     1      1      2      1
     2      2      3      2
     3      3      4      3
     4      4      5      4
     5      5      6      5
     6      6      7      6
     7      7      8      4
     8      8      9      4
     9      9     10      9
    10     10     11     10
    11     11     12     11
    12     12     13     12
    13     13     14     13
    14     14     15     14
    15     15     16     11
    16     16     17      2
    17     17     18      2
    18     18     19      1
    19     19     20      1
    20     20     21      1
    21     21     22      3
    22     22     23      5
    23     23     24      5
    24     24     25      8
    25     25     26      8
    26     26     27      9
    27     27     28      9
    28     28     29     10
    29     29     30     10
    30     30     31     12
    31     31     32     13
    32     32     33     14
    33     33     34     15
    34     34     35     16
    35     35      8      6
    36     36     16     15

Angles 

     1      1      1      2      3
     2      2      2      3      4
     3      3      3      4      5
     4      4      4      5      6
     5      5      5      6      7
     6      6      3      4      8
     7      7      3      4      9
     8      8      4      9     10
     9      9      9     10     11
    10     10     10     11     12
    11     11     11     12     13
    12     12     12     13     14
    13     13     13     14     15
    14     14     10     11     16
    15     15      1      2     17
    16     16      1      2     18
    17     17      2      1     19
    18     18      2      1     20
    19     19      2      1     21
    20     20      2      3     22
    21     21      4      5     23
    22     22      4      5     24
    23     23      4      8     25
    24     24      4      8     26
    25     25      4      9     27
    26     26      4      9     28
    27     27      9     10     29
    28     28      9     10     30
    29     29     11     12     31
    30     30     12     13     32
    31     31     13     14     33
    32     32     14     15     34
    33     33     11     16     35
    34     34      6      5     24
    35     35     20      1     21
    36     36      3      2     18
    37     37     14     13     32
    38     38     29     10     30
    39     39      6      8     26
    40     40      3      2     17
    41     41      5      4      9
    42     42     11     10     29
    43     43      4      3     22
    44     44     27      9     28
    45     45     13     12     31
    46     46      4      8      6
    47     47     19      1     20
    48     48     15     14     33
    49     49      5      4      8
    50     50     19      1     21
    51     51     15     16     35
    52     52      7      6      8
    53     53     12     11     16
    54     54     17      2     18
    55     55      8      4      9
    56     56     23      5     24
    57     57     14     15     16
    58     58      6      5     23
    59     59      5      6      8
    60     60     10      9     28
    61     61     16     15     34
    62     62     25      8     26
    63     63      6      8     25
    64     64     11     16     15
    65     65     10      9     27
    66     66     11     10     30

Dihedrals

     1      1      4      3      2      1 
     2      2      5      4      3      2 
     3      3      6      5      4      3 
     4      4      7      6      5      4 
     5      5     10      9      4      3 
     6      6     11     10      9      4 
     7      7     12     11     10      9 
     8      8     13     12     11     10 
     9      9     14     13     12     11 
    10     10     15     14     13     12 
    11     11     19      1      2      3 
    12     12      6      8      4      3 
    13     13     35     16     15     34 
    14     14     32     13     12     11 
    15     15     26      8      4      5 
    16     16     21      1      2     17 
    17     17     20      1      2     18 
    18     18     26      8      4      3 
    19     19     24      5      6      8 
    20     20     26      8      6      5 
    21     21     30     10     11     16 
    22     22     33     14     15     16 
    23     23     34     15     16     11 
    24     24     23      5      6      7 
    25     25      9      4      3      2 
    26     26     30     10      9     28 
    27     27      9      4      5      6 
    28     28     25      8      6      7 
    29     29     25      8      6      5 
    30     30     16     11     12     13 
    31     31      9      4      8      6 
    32     32     29     10      9      4 
    33     33     32     13     12     31 
    34     34     15     16     11     12 
    35     35     35     16     15     14 
    36     36      7      6      8      4 
    37     37     22      3      4      8 
    38     38     29     10     11     12 
    39     39     31     12     11     16 
    40     40     32     13     14     15 
    41     41     33     14     13     12 
    42     42     24      5      4      9 
    43     43     17      2      3      4 
    44     44     28      9      4      8 
    45     45     25      8      4      3 
    46     46     35     16     11     10 
    47     47     24      5      6      7 
    48     48     33     14     13     32 
    49     49     25      8      4      9 
    50     50     23      5      4      3 
    51     51      8      4      3      2 
    52     52     10      9      4      8 
    53     53     22      3      2     18 
    54     54     20      1      2     17 
    55     55     28      9      4      5 
    56     56     35     16     11     12 
    57     57     28      9      4      3 
    58     58     22      3      4      9 
    59     59     24      5      4      3 
    60     60     22      3      2     17 
    61     61     26      8      4      9 
    62     62     19      1      2     18 
    63     63     10      9      4      5 
    64     64     21      1      2      3 
    65     65     25      8      4      5 
    66     66     15     16     11     10 
    67     67     30     10     11     12 
    68     68     30     10      9      4 
    69     69     29     10      9     27 
    70     70     23      5      4      8 
    71     71     29     10     11     16 
    72     72     27      9     10     11 
    73     73     27      9      4      5 
    74     74     28      9     10     11 
    75     75     20      1      2      3 
    76     76     34     15     14     33 
    77     77     23      5      4      9 
    78     78     24      5      4      8 
    79     79     22      3      2      1 
    80     80     16     15     14     13 
    81     81     23      5      6      8 
    82     82     18      2      3      4 
    83     83     19      1      2     17 
    84     84     31     12     11     10 
    85     85     22      3      4      5 
    86     86     27      9      4      8 
    87     87     31     12     13     14 
    88     88     26      8      6      7 
    89     89     29     10      9     28 
    90     90     30     10      9     27 
    91     91     14     15     16     11 
    92     92     34     15     14     13 
    93     93     27      9      4      3 
    94     94     21      1      2     18 
    95     95     16     11     10      9 

Impropers

     1      1      4      3      5      8 
     2      2      4      9      3      5 
     3      3     11     10     12     16 
     4      4      2     17      3      1 
     5      5      2      1     18      3 
     6      6      1      2     19     20 
     7      7      1      2     19     21 
     8      8      3      2      4     22 
     9      9      5      4      6     23 
    10     10      5      4      6     24 
    11     11      8     25      4      6 
    12     12      8     26      4      6 
    13     13      9     10     27      4 
    14     14      9      4     28     10 
    15     15     10      9     11     29 
    16     16     10      9     11     30 
    17     17     12     11     13     31 
    18     18     13     12     14     32 
    19     19     14     33     13     15 
    20     20     15     34     14     16 
    21     21     16     35     11     15 
    22     22      4      5      6      8 
    23     23      4      5      6      8 
    24     24      4      5      6      8 
    25     25      4      5      6      8 
