LAMMPS data file Created by LigParGen - (Written by Leela S. Dodda)

      39 atoms
      40 bonds
      73 angles
      98 dihedrals
      28 impropers
 
      39 atom types
      40 bond types
      73 angle types
      98 dihedral types
      28 improper types
 
   -4.543680    45.456320 xlo xhi
   -2.429360    47.570640 ylo yhi
   -2.454820    47.545180 zlo zhi

Masses

       1     15.999  
       2     32.060  
       3     14.007  
       4     12.011  
       5     12.011  
       6     32.060  
       7     12.011  
       8     12.011  
       9     12.011  
      10     12.011  
      11     12.011  
      12     12.011  
      13     12.011  
      14     12.011  
      15     12.011  
      16     14.007  
      17     12.011  
      18     12.011  
      19     15.999  
      20      1.008  
      21      1.008  
      22      1.008  
      23      1.008  
      24      1.008  
      25      1.008  
      26      1.008  
      27      1.008  
      28      1.008  
      29      1.008  
      30      1.008  
      31      1.008  
      32      1.008  
      33      1.008  
      34      1.008  
      35      1.008  
      36      1.008  
      37      1.008  
      38      1.008  
      39      1.008  

Pair Coeffs 

       1      0.170  2.9600000 
       2      0.250  3.5500000 
       3      0.170  3.2500000 
       4      0.083  3.4500000 
       5      0.083  3.4500000 
       6      0.355  3.6000000 
       7      0.083  3.4500000 
       8      0.066  3.5000000 
       9      0.066  3.5000000 
      10      0.070  3.5500000 
      11      0.070  3.5500000 
      12      0.070  3.5500000 
      13      0.070  3.5500000 
      14      0.070  3.5500000 
      15      0.070  3.5500000 
      16      0.170  3.2500000 
      17      0.066  3.5000000 
      18      0.066  3.5000000 
      19      0.170  2.9600000 
      20      0.000  0.0000000 
      21      0.030  2.5000000 
      22      0.030  2.5000000 
      23      0.030  2.5000000 
      24      0.030  2.5000000 
      25      0.030  2.5000000 
      26      0.030  2.5000000 
      27      0.030  2.5000000 
      28      0.030  2.5000000 
      29      0.030  2.4200000 
      30      0.030  2.4200000 
      31      0.030  2.4200000 
      32      0.030  2.4200000 
      33      0.030  2.4200000 
      34      0.030  2.5000000 
      35      0.030  2.5000000 
      36      0.030  2.5000000 
      37      0.030  2.5000000 
      38      0.030  2.5000000 
      39      0.030  2.5000000 

Bond Coeffs 

       1   700.0000     1.4400 
       2   434.0000     1.6700 
       3   337.0000     1.4490 
       4   260.0000     1.5200 
       5   222.0000     1.8100 
       6   260.0000     1.5200 
       7   280.0000     1.5100 
       8   268.0000     1.5290 
       9   317.0000     1.5100 
      10   469.0000     1.4000 
      11   469.0000     1.4000 
      12   469.0000     1.4000 
      13   469.0000     1.4000 
      14   469.0000     1.4000 
      15   434.0000     1.6700 
      16   337.0000     1.4490 
      17   337.0000     1.4490 
      18   700.0000     1.4400 
      19   434.0000     1.0100 
      20   340.0000     1.0880 
      21   340.0000     1.0880 
      22   340.0000     1.0880 
      23   340.0000     1.0880 
      24   340.0000     1.0900 
      25   340.0000     1.0900 
      26   340.0000     1.0900 
      27   340.0000     1.0900 
      28   367.0000     1.0800 
      29   367.0000     1.0800 
      30   367.0000     1.0800 
      31   367.0000     1.0800 
      32   367.0000     1.0800 
      33   340.0000     1.0900 
      34   340.0000     1.0900 
      35   340.0000     1.0900 
      36   340.0000     1.0900 
      37   340.0000     1.0900 
      38   340.0000     1.0900 
      39   222.0000     1.8100 
      40   469.0000     1.4000 

Angle Coeffs 

       1    120.000    107.000
       2     50.000    120.000
       3     37.500    126.000
       4     55.000    128.000
       5     37.500    126.000
       6     80.000    109.700
       7     58.350    112.700
       8     63.000    114.000
       9     70.000    120.000
      10     63.000    120.000
      11     63.000    120.000
      12     63.000    120.000
      13     70.000    120.000
      14    120.000    107.000
      15     50.000    120.000
      16     50.000    120.000
      17    104.000    119.000
      18    100.000    111.000
      19     37.500    117.200
      20     37.500    117.200
      21     37.500    117.200
      22     37.500    117.200
      23     37.500    110.700
      24     37.500    110.700
      25     37.500    110.700
      26     37.500    110.700
      27     35.000    120.000
      28     35.000    120.000
      29     35.000    120.000
      30     35.000    120.000
      31     35.000    120.000
      32     35.000    109.500
      33     35.000    109.500
      34     35.000    109.500
      35     35.000    109.500
      36     35.000    109.500
      37     35.000    109.500
      38     63.000    120.000
      39     35.000    120.000
      40     33.000    107.800
      41     37.500    110.700
      42     63.000    120.000
      43     35.000    114.300
      44     33.000    107.800
      45     35.000    109.500
      46     33.000    107.800
      47     37.500    108.000
      48     33.000    107.800
      49     37.500    117.200
      50     50.000    118.000
      51     62.000     94.000
      52     37.500    108.000
      53     30.000     83.000
      54     78.670    104.360
      55     37.500    117.200
      56     37.500    108.000
      57     35.000    114.300
      58    120.000    107.000
      59     35.000    120.000
      60     35.000    120.000
      61     33.000    107.800
      62    120.000    107.000
      63     35.000    120.000
      64     55.000    128.000
      65     37.500    108.000
      66     33.000    107.800
      67     33.000    107.800
      68     37.500    110.700
      69     40.000    113.000
      70     33.000    107.800
      71     35.000    109.500
      72     35.000    120.000
      73     63.000    120.000

Dihedral Coeffs  

       1      0.000      0.000      0.000      0.000 
       2      2.929     -2.533      0.497      0.000 
       3      0.000      0.000      0.000      0.000 
       4      0.845     -0.962      0.713      0.000 
       5     -1.697     -0.456      0.585      0.000 
       6      0.000      0.000      0.000      0.000 
       7      0.000      7.250      0.000      0.000 
       8      0.000      7.250      0.000      0.000 
       9      0.000      7.250      0.000      0.000 
      10      0.000      0.000      0.000      0.000 
      11      1.362     -1.457      0.149      0.000 
      12      1.362     -1.457      0.149      0.000 
      13      0.000      0.000      0.000      0.000 
      14      0.000      7.250      0.000      0.000 
      15      0.000      0.000      0.300      0.000 
      16      0.000      0.000      0.000      0.000 
      17      0.000      0.000      0.000      0.000 
      18      0.000      0.000      0.000      0.000 
      19      0.000      0.000      0.000      0.000 
      20      0.000      0.000      0.000      0.000 
      21      0.000      0.000      0.000      0.000 
      22      0.000      7.250      0.000      0.000 
      23      1.362     -1.457      0.149      0.000 
      24      0.000      7.250      0.000      0.000 
      25      0.000      0.000      0.000      0.000 
      26      0.000      0.000      0.000      0.000 
      27      0.000      0.000      0.000      0.000 
      28      0.000      0.000      0.000      0.000 
      29      0.000      0.000      0.000      0.000 
      30      0.000      0.000      0.462      0.000 
      31      0.000      0.000      0.647      0.000 
      32      0.000      7.250      0.000      0.000 
      33      2.074     -2.966      2.473      0.000 
      34      0.000      0.000      0.000      0.000 
      35      0.000      7.250      0.000      0.000 
      36      0.000      0.000      0.000      0.000 
      37      0.000      0.000      0.000      0.000 
      38      0.000      0.000      0.000      0.000 
      39      0.000      0.000      0.000      0.000 
      40      0.000      0.000      0.000      0.000 
      41      0.000      0.000      0.000      0.000 
      42      0.000      0.000      0.000      0.000 
      43      0.000      7.250      0.000      0.000 
      44      0.000      0.000      0.300      0.000 
      45      0.000      0.000      0.000      0.000 
      46      0.000      0.000      0.000      0.000 
      47      0.000      7.250      0.000      0.000 
      48      0.000      7.250      0.000      0.000 
      49      0.000      0.000      0.000      0.000 
      50      0.000      0.000      0.300      0.000 
      51      0.000      7.250      0.000      0.000 
      52      0.000      7.250      0.000      0.000 
      53      0.000      0.000      0.000      0.000 
      54      2.929     -2.533      0.497      0.000 
      55      0.000      0.000      0.647      0.000 
      56      0.000      0.000      0.000      0.000 
      57      0.000      0.000      0.000      0.000 
      58      0.000      0.000      0.000      0.000 
      59      0.000      7.250      0.000      0.000 
      60      0.000      0.000      0.300      0.000 
      61      2.929     -2.533      0.497      0.000 
      62      0.000      0.000      0.000      0.000 
      63      0.000      0.000      0.000      0.000 
      64      0.000      0.000      0.000      0.000 
      65      0.000      0.000      0.000      0.000 
      66      0.000      7.250      0.000      0.000 
      67      0.000      0.000      0.647      0.000 
      68      0.000      0.000      0.647      0.000 
      69      2.074     -2.966      2.473      0.000 
      70      1.362     -1.457      0.149      0.000 
      71      0.000      7.250      0.000      0.000 
      72      1.362     -1.457      0.149      0.000 
      73      0.000      0.000      0.300      0.000 
      74      0.000      0.000      0.300      0.000 
      75      0.000      0.000      0.300      0.000 
      76      0.000      0.000      0.000      0.000 
      77      0.000      0.000      0.300      0.000 
      78      0.000      7.250      0.000      0.000 
      79      2.074     -2.966      2.473      0.000 
      80      0.000      0.000      0.000      0.000 
      81      0.000      0.000      0.300      0.000 
      82      0.000      0.000      0.000      0.000 
      83      0.000      0.000      0.000      0.000 
      84      0.000      0.000      0.000      0.000 
      85      0.000      0.000      0.462      0.000 
      86      0.000      0.000      0.000      0.000 
      87      0.000      7.250      0.000      0.000 
      88      0.000      0.000      0.300      0.000 
      89      0.000      7.250      0.000      0.000 
      90      0.000      7.250      0.000      0.000 
      91      1.671     -4.901      0.669      0.000 
      92      0.000      7.250      0.000      0.000 
      93      0.000      7.250      0.000      0.000 
      94      0.000      0.000      0.000      0.000 
      95      0.000      0.000      0.000      0.000 
      96      0.000      7.250      0.000      0.000 
      97      1.362     -1.457      0.149      0.000 
      98      0.000      7.250      0.000      0.000 

Improper Coeffs 

       1      0.000      -1       2 
       2      0.000      -1       2 
       3      2.500      -1       2 
       4      0.000      -1       2 
       5      2.500      -1       2 
       6      0.000      -1       2 
       7      2.500      -1       2 
       8      0.000      -1       2 
       9      0.000      -1       2 
      10      0.000      -1       2 
      11      0.000      -1       2 
      12      0.000      -1       2 
      13      0.000      -1       2 
      14      0.000      -1       2 
      15      0.000      -1       2 
      16      2.500      -1       2 
      17      2.500      -1       2 
      18      2.500      -1       2 
      19      2.500      -1       2 
      20      2.500      -1       2 
      21      0.000      -1       2 
      22      0.000      -1       2 
      23      0.000      -1       2 
      24      0.000      -1       2 
      25      0.000      -1       2 
      26      0.000      -1       2 
      27     -0.288      -1       2 
      28     -0.288      -1       2 

Atoms 

     1      1      1 -0.54310000    1.000  1.00000  0.00000
     2      1      2 1.80690000   -0.440  1.00000  0.00000
     3      1      3 -1.62390000   -1.005  1.00000  1.58652
     4      1      4 0.44920000   -0.756 -0.13639  2.61206
     5      1      5 -0.20820000   -1.378 -1.52108  2.19154
     6      1      6 -0.18910000    0.069 -2.42936  2.80633
     7      1      7 -0.17590000    0.703 -0.72907  2.64565
     8      1      8 -0.14440000   -1.272  0.44637  3.95999
     9      1      9 -0.13330000   -1.147 -0.48316  5.17258
    10      1     10 -0.08710000   -1.672  0.16211  6.43372
    11      1     11 -0.14320000   -3.016  0.01198  6.80144
    12      1     12 -0.14570000   -3.500  0.60697  7.96752
    13      1     13 -0.14750000   -2.646  1.35597  8.77462
    14      1     14 -0.14540000   -1.308  1.50958  8.41531
    15      1     15 -0.14160000   -0.822  0.91977  7.25075
    16      1     16 -1.38910000   -0.964  2.54423 -0.45439
    17      1     17 0.19400000   -0.315  3.66359  0.26684
    18      1     18 0.18210000   -0.901  2.75732 -1.92181
    19      1     19 -0.54310000   -1.221  0.02576 -0.72177
    20      1     20 0.66390000   -2.004  1.20675  1.51996
    21      1     21 0.14890000   -1.527 -1.66095  1.11751
    22      1     22 0.14890000   -2.326 -1.76499  2.68201
    23      1     23 0.15350000    1.296 -0.61903  1.73618
    24      1     24 0.15350000    1.323 -0.38413  3.47929
    25      1     25 0.11110000   -2.327  0.72733  3.84005
    26      1     26 0.11110000   -0.727  1.37719  4.17091
    27      1     27 0.11030000   -0.103 -0.77073  5.33891
    28      1     28 0.11030000   -1.702 -1.41447  5.00903
    29      1     29 0.14750000   -3.694 -0.57076  6.18162
    30      1     30 0.14930000   -4.544  0.48467  8.24609
    31      1     31 0.14870000   -3.024  1.81775  9.68285
    32      1     32 0.14890000   -0.641  2.09076  9.04662
    33      1     33 0.14890000    0.223  1.05242  6.98287
    34      1     34 0.11100000   -0.398  3.53667  1.34947
    35      1     35 0.11100000   -0.827  4.59957  0.01739
    36      1     36 0.11100000    0.739  3.75780 -0.01112
    37      1     37 0.11350000   -1.439  1.96833 -2.45482
    38      1     38 0.11350000    0.137  2.78730 -2.26846
    39      1     39 0.11350000   -1.385  3.70485 -2.17845

Bonds 

     1      1      2      1
     2      2      3      2
     3      3      4      3
     4      4      5      4
     5      5      6      5
     6      6      7      4
     7      7      8      4
     8      8      9      8
     9      9     10      9
    10     10     11     10
    11     11     12     11
    12     12     13     12
    13     13     14     13
    14     14     15     10
    15     15     16      2
    16     16     17     16
    17     17     18     16
    18     18     19      2
    19     19     20      3
    20     20     21      5
    21     21     22      5
    22     22     23      7
    23     23     24      7
    24     24     25      8
    25     25     26      8
    26     26     27      9
    27     27     28      9
    28     28     29     11
    29     29     30     12
    30     30     31     13
    31     31     32     14
    32     32     33     15
    33     33     34     17
    34     34     35     17
    35     35     36     17
    36     36     37     18
    37     37     38     18
    38     38     39     18
    39     39      7      6
    40     40     15     14

Angles 

     1      1      1      2      3
     2      2      2      3      4
     3      3      3      4      5
     4      4      4      5      6
     5      5      3      4      7
     6      6      3      4      8
     7      7      4      8      9
     8      8      8      9     10
     9      9      9     10     11
    10     10     10     11     12
    11     11     11     12     13
    12     12     12     13     14
    13     13      9     10     15
    14     14      1      2     16
    15     15      2     16     17
    16     16      2     16     18
    17     17      1      2     19
    18     18      2      3     20
    19     19      4      5     21
    20     20      4      5     22
    21     21      4      7     23
    22     22      4      7     24
    23     23      4      8     25
    24     24      4      8     26
    25     25      8      9     27
    26     26      8      9     28
    27     27     10     11     29
    28     28     11     12     30
    29     29     12     13     31
    30     30     13     14     32
    31     31     10     15     33
    32     32     16     17     34
    33     33     16     17     35
    34     34     16     17     36
    35     35     16     18     37
    36     36     16     18     38
    37     37     16     18     39
    38     38     13     14     15
    39     39     14     15     33
    40     40     38     18     39
    41     41      9      8     25
    42     42     11     10     15
    43     43     21      5     22
    44     44     34     17     35
    45     45     10      9     28
    46     46     25      8     26
    47     47      6      5     22
    48     48     27      9     28
    49     49      7      4      8
    50     50     17     16     18
    51     51      5      6      7
    52     52      6      7     24
    53     53      5      4      7
    54     54      3      2     16
    55     55      5      4      8
    56     56      6      7     23
    57     57     23      7     24
    58     58      3      2     19
    59     59     13     12     30
    60     60     14     13     31
    61     61     34     17     36
    62     62     16      2     19
    63     63     15     14     32
    64     64      4      7      6
    65     65      6      5     21
    66     66     35     17     36
    67     67     37     18     38
    68     68      9      8     26
    69     69      4      3     20
    70     70     37     18     39
    71     71     10      9     27
    72     72     12     11     29
    73     73     10     15     14

Dihedrals

     1      1      4      3      2      1 
     2      2      5      4      3      2 
     3      3      6      5      4      3 
     4      4      9      8      4      3 
     5      5     10      9      8      4 
     6      6     11     10      9      8 
     7      7     12     11     10      9 
     8      8     13     12     11     10 
     9      9     14     13     12     11 
    10     10     17     16      2      1 
    11     11     34     17     16      2 
    12     12     37     18     16      2 
    13     13     20      3      4      8 
    14     14     32     14     15     10 
    15     15     26      8      4      7 
    16     16     20      3      4      7 
    17     17     20      3      2      1 
    18     18     28      9     10     15 
    19     19     23      7      4      5 
    20     20     26      8      4      3 
    21     21     20      3      2     19 
    22     22     33     15     10      9 
    23     23     36     17     16      2 
    24     24     29     11     10      9 
    25     25     19      2     16     17 
    26     26      9      8      4      5 
    27     27     21      5      4      3 
    28     28      6      7      4      3 
    29     29     24      7      4      8 
    30     30     26      8      9     10 
    31     31     24      7      6      5 
    32     32     33     15     14     32 
    33     33     16      2      3      4 
    34     34     19      2     16     18 
    35     35     13     14     15     10 
    36     36     23      7      4      3 
    37     37     15     10      9      8 
    38     38     36     17     16     18 
    39     39     37     18     16     17 
    40     40     24      7      4      3 
    41     41     22      5      4      7 
    42     42     21      5      4      8 
    43     43     30     12     11     29 
    44     44     26      8      4      5 
    45     45      8      4      5      6 
    46     46     18     16      2      1 
    47     47     31     13     14     15 
    48     48     30     12     13     14 
    49     49     22      5      4      3 
    50     50     27      9      8      4 
    51     51     15     10     11     12 
    52     52     14     15     10      9 
    53     53     34     17     16     18 
    54     54      7      4      3      2 
    55     55     21      5      6      7 
    56     56     39     18     16     17 
    57     57     25      8      4      3 
    58     58     20      3      4      5 
    59     59     31     13     12     11 
    60     60     28      9      8      4 
    61     61      8      4      3      2 
    62     62     35     17     16     18 
    63     63     27      9     10     15 
    64     64      9      8      4      7 
    65     65      8      4      7      6 
    66     66     30     12     11     10 
    67     67     23      7      6      5 
    68     68     22      5      6      7 
    69     69     18     16      2      3 
    70     70     39     18     16      2 
    71     71     29     11     10     15 
    72     72     35     17     16      2 
    73     73     27      9      8     26 
    74     74     28      9      8     25 
    75     75     28      9      8     26 
    76     76     24      7      4      5 
    77     77     25      8      4      5 
    78     78     15     14     13     12 
    79     79     17     16      2      3 
    80     80     23      7      4      8 
    81     81     25      8      4      7 
    82     82     22      5      4      8 
    83     83     38     18     16     17 
    84     84     27      9     10     11 
    85     85     25      8      9     10 
    86     86     19      2      3      4 
    87     87     14     15     10     11 
    88     88     27      9      8     25 
    89     89     33     15     14     13 
    90     90     29     11     12     13 
    91     91     20      3      2     16 
    92     92     33     15     10     11 
    93     93     32     14     13     31 
    94     94     21      5      4      7 
    95     95     28      9     10     11 
    96     96     32     14     13     12 
    97     97     38     18     16      2 
    98     98     31     13     12     30 

Impropers

     1      1      4      3      5      7 
     2      2      4      3      5      8 
     3      3     10      9     11     15 
     4      4      2      1      3     16 
     5      5     16     17     18      2 
     6      6      2      1     19      3 
     7      7      3      4      2     20 
     8      8      5      4     21      6 
     9      9      5      4     22      6 
    10     10      7      4     23      6 
    11     11      7      4      6     24 
    12     12      8     25      9      4 
    13     13      8      9     26      4 
    14     14      9     10     27      8 
    15     15      9     10     28      8 
    16     16     11     10     12     29 
    17     17     12     11     13     30 
    18     18     13     12     14     31 
    19     19     14     13     15     32 
    20     20     15     33     10     14 
    21     21     17     34     35     16 
    22     22     17     34     36     16 
    23     23     18     37     38     16 
    24     24     18     37     39     16 
    25     25      4      5      6      7 
    26     26      4      5      6      7 
    27     27      4      5      6      7 
    28     28      4      5      6      7 
