LAMMPS data file Created by LigParGen - (Written by Leela S. Dodda)

      33 atoms
      33 bonds
      57 angles
      73 dihedrals
      19 impropers
 
      33 atom types
      33 bond types
      57 angle types
      73 dihedral types
      19 improper types
 
  -11.200520    38.799480 xlo xhi
    0.139070    50.139070 ylo yhi
   -3.121150    46.878850 zlo zhi

Masses

       1     12.011  
       2     14.007  
       3     12.011  
       4     32.060  
       5     15.999  
       6     15.999  
       7     14.007  
       8     12.011  
       9     15.999  
      10     12.011  
      11     12.011  
      12     12.011  
      13     12.011  
      14     12.011  
      15     12.011  
      16     12.011  
      17     12.011  
      18      1.008  
      19      1.008  
      20      1.008  
      21      1.008  
      22      1.008  
      23      1.008  
      24      1.008  
      25      1.008  
      26      1.008  
      27      1.008  
      28      1.008  
      29      1.008  
      30      1.008  
      31      1.008  
      32      1.008  
      33      1.008  

Pair Coeffs 

       1      0.066  3.5000000 
       2      0.170  3.2500000 
       3      0.066  3.5000000 
       4      0.250  3.5500000 
       5      0.170  2.9600000 
       6      0.170  2.9600000 
       7      0.170  3.2500000 
       8      0.070  3.5500000 
       9      0.210  2.9600000 
      10      0.066  3.5000000 
      11      0.066  3.5000000 
      12      0.070  3.5500000 
      13      0.070  3.5500000 
      14      0.070  3.5500000 
      15      0.070  3.5500000 
      16      0.070  3.5500000 
      17      0.070  3.5500000 
      18      0.030  2.5000000 
      19      0.030  2.5000000 
      20      0.030  2.5000000 
      21      0.030  2.5000000 
      22      0.030  2.5000000 
      23      0.030  2.5000000 
      24      0.000  0.0000000 
      25      0.030  2.5000000 
      26      0.030  2.5000000 
      27      0.030  2.5000000 
      28      0.030  2.5000000 
      29      0.030  2.4200000 
      30      0.030  2.4200000 
      31      0.030  2.4200000 
      32      0.030  2.4200000 
      33      0.030  2.4200000 

Bond Coeffs 

       1   337.0000     1.4490 
       2   337.0000     1.4490 
       3   434.0000     1.6700 
       4   700.0000     1.4400 
       5   700.0000     1.4400 
       6   434.0000     1.6700 
       7   490.0000     1.3350 
       8   570.0000     1.2290 
       9   317.0000     1.5220 
      10   268.0000     1.5290 
      11   317.0000     1.5100 
      12   469.0000     1.4000 
      13   469.0000     1.4000 
      14   469.0000     1.4000 
      15   469.0000     1.4000 
      16   469.0000     1.4000 
      17   340.0000     1.0900 
      18   340.0000     1.0900 
      19   340.0000     1.0900 
      20   340.0000     1.0900 
      21   340.0000     1.0900 
      22   340.0000     1.0900 
      23   434.0000     1.0100 
      24   340.0000     1.0900 
      25   340.0000     1.0900 
      26   340.0000     1.0900 
      27   340.0000     1.0900 
      28   367.0000     1.0800 
      29   367.0000     1.0800 
      30   367.0000     1.0800 
      31   367.0000     1.0800 
      32   367.0000     1.0800 
      33   469.0000     1.4000 

Angle Coeffs 

       1     50.000    118.000
       2     50.000    120.000
       3    120.000    107.000
       4    120.000    107.000
       5     78.670    104.360
       6     70.000    112.000
       7     80.000    122.900
       8     70.000    116.600
       9     63.000    111.100
      10     63.000    114.000
      11     70.000    120.000
      12     63.000    120.000
      13     63.000    120.000
      14     63.000    120.000
      15     70.000    120.000
      16     35.000    109.500
      17     35.000    109.500
      18     35.000    109.500
      19     35.000    109.500
      20     35.000    109.500
      21     35.000    109.500
      22    100.000    111.000
      23     35.000    109.500
      24     35.000    109.500
      25     37.500    110.700
      26     37.500    110.700
      27     35.000    120.000
      28     35.000    120.000
      29     35.000    120.000
      30     35.000    120.000
      31     35.000    120.000
      32     35.000    120.000
      33    104.000    119.000
      34     35.000    109.500
      35     35.000    120.000
      36     35.000    120.000
      37    120.000    107.000
      38     33.000    107.800
      39     33.000    107.800
      40     33.000    107.800
      41    120.000    107.000
      42     35.000    120.000
      43     80.000    120.400
      44     33.000    107.800
      45     33.000    107.800
      46     33.000    107.800
      47     63.000    120.000
      48     50.000    120.000
      49     37.500    110.700
      50     63.000    120.000
      51     37.500    110.700
      52     35.000    120.000
      53     35.000    109.500
      54     63.000    120.000
      55     33.000    107.800
      56     33.000    107.800
      57     35.000    119.800

Dihedral Coeffs  

       1      0.000      0.000      0.000      0.000 
       2      2.074     -2.966      2.473      0.000 
       3      0.000      6.089      0.000      0.000 
       4      1.173      0.189     -1.200      0.000 
       5     -1.697     -0.456      0.585      0.000 
       6      0.000      0.000      0.000      0.000 
       7      0.000      7.250      0.000      0.000 
       8      0.000      7.250      0.000      0.000 
       9      0.000      7.250      0.000      0.000 
      10      0.000      0.000      0.000      0.000 
      11      0.000      0.000      0.000      0.000 
      12      1.362     -1.457      0.149      0.000 
      13      0.000      0.000      0.462      0.000 
      14      2.929     -2.533      0.497      0.000 
      15      0.000      7.250      0.000      0.000 
      16      0.000      0.000      0.000      0.000 
      17      0.000      7.250      0.000      0.000 
      18      0.000      7.250      0.000      0.000 
      19      0.000      4.900      0.000      0.000 
      20      1.671     -4.901      0.669      0.000 
      21      0.000      7.250      0.000      0.000 
      22      2.074     -2.966      2.473      0.000 
      23      0.000      0.000      0.300      0.000 
      24      0.000      0.000      0.000      0.000 
      25      1.362     -1.457      0.149      0.000 
      26      0.000      4.900      0.000      0.000 
      27      0.000      0.000      0.000      0.000 
      28      2.074     -2.966      2.473      0.000 
      29      0.000      7.250      0.000      0.000 
      30      0.000      0.000      0.300      0.000 
      31      0.000      7.250      0.000      0.000 
      32      0.000      7.250      0.000      0.000 
      33      0.000      7.250      0.000      0.000 
      34      0.000      0.000      0.000      0.000 
      35      0.000      0.000      0.000      0.000 
      36      0.000      7.250      0.000      0.000 
      37      1.362     -1.457      0.149      0.000 
      38      0.000      0.000      0.462      0.000 
      39      0.000      0.000      0.000      0.000 
      40      0.000      0.000      0.000      0.000 
      41      0.000      7.250      0.000      0.000 
      42      0.000      0.000      0.000      0.000 
      43      0.000      7.250      0.000      0.000 
      44      0.000      0.000      0.000      0.000 
      45      1.362     -1.457      0.149      0.000 
      46      0.000      0.000      0.000      0.000 
      47      0.000      7.250      0.000      0.000 
      48      0.000      7.250      0.000      0.000 
      49      0.000      0.000      0.000      0.000 
      50      0.000      7.250      0.000      0.000 
      51      0.000      0.000     -0.100      0.000 
      52      0.000      7.250      0.000      0.000 
      53      0.000      0.000      0.300      0.000 
      54      0.000      7.250      0.000      0.000 
      55      1.362     -1.457      0.149      0.000 
      56      0.000      0.000      0.000      0.000 
      57      0.000      7.250      0.000      0.000 
      58      0.000      7.250      0.000      0.000 
      59      0.000      7.250      0.000      0.000 
      60      0.000      0.000      0.000      0.000 
      61      0.000      0.000     -0.100      0.000 
      62      0.000      0.000      0.000      0.000 
      63      0.000      0.000      0.000      0.000 
      64      0.000      0.000      0.000      0.000 
      65      0.000      0.000      0.000      0.000 
      66      0.000      0.000      0.000      0.000 
      67      1.362     -1.457      0.149      0.000 
      68      0.000      0.000      0.000      0.000 
      69      0.000      7.250      0.000      0.000 
      70      0.000      0.000      0.000      0.000 
      71      0.000      7.250      0.000      0.000 
      72      0.000      0.000      0.000      0.000 
      73      0.000      0.000      0.300      0.000 

Improper Coeffs 

       1      2.500      -1       2 
       2      0.000      -1       2 
       3      0.000      -1       2 
       4     10.500      -1       2 
       5      2.500      -1       2 
       6      0.000      -1       2 
       7      0.000      -1       2 
       8      0.000      -1       2 
       9      0.000      -1       2 
      10      2.500      -1       2 
      11      0.000      -1       2 
      12      0.000      -1       2 
      13      0.000      -1       2 
      14      0.000      -1       2 
      15      2.500      -1       2 
      16      2.500      -1       2 
      17      2.500      -1       2 
      18      2.500      -1       2 
      19      2.500      -1       2 

Atoms 

     1      1      1 0.17240000    1.000  1.00000  0.00000
     2      1      2 -1.37400000   -0.493  1.00000  0.00000
     3      1      3 0.18960000   -0.997  1.00000  1.39053
     4      1      4 1.81580000   -1.086  2.24866 -1.00313
     5      1      5 -0.49970000   -0.600  3.48112 -0.42844
     6      1      6 -0.49970000   -0.801  1.86056 -2.36638
     7      1      7 -1.79250000   -2.718  2.08796 -0.76123
     8      1      8 0.81240000   -3.590  3.18684 -0.90796
     9      1      9 -0.34220000   -3.198  4.32959 -1.09822
    10      1     10 -0.18220000   -5.065  2.86059 -0.81241
    11      1     11 -0.12970000   -5.874  3.87295 -1.62435
    12      1     12 -0.09130000   -7.361  3.64980 -1.52573
    13      1     13 -0.13890000   -8.123  4.34962 -0.57912
    14      1     14 -0.14570000   -9.500  4.14405 -0.48879
    15      1     15 -0.14470000  -10.128  3.23877 -1.34240
    16      1     16 -0.14570000   -9.377  2.53952 -2.28586
    17      1     17 -0.14240000   -8.002  2.74225 -2.37878
    18      1     18 0.11530000    1.377  0.13907  0.56011
    19      1     19 0.11530000    1.386  1.90986  0.47421
    20      1     20 0.11530000    1.391  0.92608 -1.01909
    21      1     21 0.10640000   -0.496  0.21518  1.96683
    22      1     22 0.10640000   -2.064  0.75872  1.40383
    23      1     23 0.10640000   -0.822  1.95869  1.88458
    24      1     24 0.72700000   -3.061  1.15988 -0.98424
    25      1     25 0.12880000   -5.343  2.90420  0.24774
    26      1     26 0.12880000   -5.252  1.84118 -1.16706
    27      1     27 0.11880000   -5.570  3.83153 -2.67849
    28      1     28 0.11880000   -5.649  4.89619 -1.29546
    29      1     29 0.15200000   -7.647  5.06074  0.09359
    30      1     30 0.15130000  -10.084  4.69160  0.24717
    31      1     31 0.15000000  -11.201  3.08041 -1.27192
    32      1     32 0.15000000   -9.866  1.83422 -2.95253
    33      1     33 0.14800000   -7.431  2.18947 -3.12115

Bonds 

     1      1      2      1
     2      2      3      2
     3      3      4      2
     4      4      5      4
     5      5      6      4
     6      6      7      4
     7      7      8      7
     8      8      9      8
     9      9     10      8
    10     10     11     10
    11     11     12     11
    12     12     13     12
    13     13     14     13
    14     14     15     14
    15     15     16     15
    16     16     17     12
    17     17     18      1
    18     18     19      1
    19     19     20      1
    20     20     21      3
    21     21     22      3
    22     22     23      3
    23     23     24      7
    24     24     25     10
    25     25     26     10
    26     26     27     11
    27     27     28     11
    28     28     29     13
    29     29     30     14
    30     30     31     15
    31     31     32     16
    32     32     33     17
    33     33     17     16

Angles 

     1      1      1      2      3
     2      2      1      2      4
     3      3      2      4      5
     4      4      2      4      6
     5      5      2      4      7
     6      6      4      7      8
     7      7      7      8      9
     8      8      7      8     10
     9      9      8     10     11
    10     10     10     11     12
    11     11     11     12     13
    12     12     12     13     14
    13     13     13     14     15
    14     14     14     15     16
    15     15     11     12     17
    16     16      2      1     18
    17     17      2      1     19
    18     18      2      1     20
    19     19      2      3     21
    20     20      2      3     22
    21     21      2      3     23
    22     22      4      7     24
    23     23      8     10     25
    24     24      8     10     26
    25     25     10     11     27
    26     26     10     11     28
    27     27     12     13     29
    28     28     13     14     30
    29     29     14     15     31
    30     30     15     16     32
    31     31     12     17     33
    32     32     14     13     29
    33     33      5      4      6
    34     34     12     11     28
    35     35     17     16     32
    36     36     16     17     33
    37     37      5      4      7
    38     38     27     11     28
    39     39     25     10     26
    40     40     22      3     23
    41     41      6      4      7
    42     42     16     15     31
    43     43      9      8     10
    44     44     18      1     20
    45     45     21      3     22
    46     46     21      3     23
    47     47     13     12     17
    48     48      3      2      4
    49     49     11     10     25
    50     50     12     17     16
    51     51     11     10     26
    52     52     15     14     30
    53     53     12     11     27
    54     54     15     16     17
    55     55     18      1     19
    56     56     19      1     20
    57     57      8      7     24

Dihedrals

     1      1      5      4      2      1 
     2      2      8      7      4      2 
     3      3      9      8      7      4 
     4      4     11     10      8      7 
     5      5     12     11     10      8 
     6      6     13     12     11     10 
     7      7     14     13     12     11 
     8      8     15     14     13     12 
     9      9     16     15     14     13 
    10     10     18      1      2      3 
    11     11     21      3      2      1 
    12     12     21      3      2      4 
    13     13     25     10     11     12 
    14     14     10      8      7      4 
    15     15     17     12     13     14 
    16     16     17     12     11     10 
    17     17     30     14     13     29 
    18     18     29     13     12     17 
    19     19     24      7      8      9 
    20     20     24      7      4      2 
    21     21     30     14     13     12 
    22     22      7      4      2      3 
    23     23     28     11     10     25 
    24     24     20      1      2      3 
    25     25     19      1      2      4 
    26     26     24      7      8     10 
    27     27      5      4      2      3 
    28     28      7      4      2      1 
    29     29     32     16     15     31 
    30     30     27     11     10     26 
    31     31     30     14     15     16 
    32     32     17     16     15     14 
    33     33     33     17     12     13 
    34     34     25     10      8      7 
    35     35     22      3      2      1 
    36     36     29     13     14     15 
    37     37     18      1      2      4 
    38     38     26     10     11     12 
    39     39     19      1      2      3 
    40     40      8      7      4      6 
    41     41     33     17     16     32 
    42     42     26     10      8      7 
    43     43     33     17     12     11 
    44     44     11     10      8      9 
    45     45     22      3      2      4 
    46     46     24      7      4      6 
    47     47     31     15     16     17 
    48     48     32     16     15     14 
    49     49      6      4      2      1 
    50     50     29     13     12     11 
    51     51     28     11     10      8 
    52     52     16     17     12     13 
    53     53     28     11     10     26 
    54     54     16     17     12     11 
    55     55     23      3      2      4 
    56     56     28     11     12     13 
    57     57     31     15     14     13 
    58     58     31     15     14     30 
    59     59     15     16     17     12 
    60     60     27     11     12     17 
    61     61     27     11     10      8 
    62     62      6      4      2      3 
    63     63      8      7      4      5 
    64     64     28     11     12     17 
    65     65     25     10      8      9 
    66     66     24      7      4      5 
    67     67     20      1      2      4 
    68     68     23      3      2      1 
    69     69     33     17     16     15 
    70     70     26     10      8      9 
    71     71     32     16     17     12 
    72     72     27     11     12     13 
    73     73     27     11     10     25 

Impropers

     1      1      2      1      3      4 
     2      2      4      2      5      6 
     3      3      4      2      5      7 
     4      4      8      9     10      7 
     5      5     12     17     11     13 
     6      6      1      2     19     18 
     7      7      1      2     20     18 
     8      8      3      2     21     22 
     9      9      3      2     21     23 
    10     10      7      8      4     24 
    11     11     10     25     11      8 
    12     12     10     26     11      8 
    13     13     11     10     27     12 
    14     14     11     12     10     28 
    15     15     13     12     29     14 
    16     16     14     13     30     15 
    17     17     15     16     31     14 
    18     18     16     17     15     32 
    19     19     17     33     12     16 
