LAMMPS data file Created by LigParGen - (Written by Leela S. Dodda)

      26 atoms
      27 bonds
      44 angles
      60 dihedrals
      14 impropers
 
      26 atom types
      27 bond types
      44 angle types
      60 dihedral types
      14 improper types
 
   -2.101740    47.898260 xlo xhi
   -0.028980    49.971020 ylo yhi
   -1.667920    48.332080 zlo zhi

Masses

       1     15.999  
       2     32.060  
       3     14.007  
       4     12.011  
       5     14.007  
       6     15.999  
       7     12.011  
       8     12.011  
       9     12.011  
      10     12.011  
      11     12.011  
      12     12.011  
      13     12.011  
      14     12.011  
      15     12.011  
      16     15.999  
      17      1.008  
      18      1.008  
      19      1.008  
      20      1.008  
      21      1.008  
      22      1.008  
      23      1.008  
      24      1.008  
      25      1.008  
      26      1.008  

Pair Coeffs 

       1      0.170  2.9600000 
       2      0.250  3.5500000 
       3      0.170  3.2500000 
       4      0.070  3.5500000 
       5      0.170  3.2500000 
       6      0.140  2.9000000 
       7      0.070  3.5500000 
       8      0.070  3.5500000 
       9      0.070  3.5500000 
      10      0.070  3.5500000 
      11      0.070  3.5500000 
      12      0.070  3.5500000 
      13      0.070  3.5500000 
      14      0.070  3.5500000 
      15      0.066  3.5000000 
      16      0.170  2.9600000 
      17      0.000  0.0000000 
      18      0.030  2.4200000 
      19      0.030  2.4200000 
      20      0.030  2.4200000 
      21      0.030  2.4200000 
      22      0.030  2.4200000 
      23      0.030  2.4200000 
      24      0.030  2.5000000 
      25      0.030  2.5000000 
      26      0.030  2.5000000 

Bond Coeffs 

       1   700.0000     1.4400 
       2   434.0000     1.6700 
       3   427.0000     1.3810 
       4   410.0000     1.3200 
       5   462.0000     1.3990 
       6   340.0000     1.3600 
       7   385.0000     1.4600 
       8   469.0000     1.4000 
       9   469.0000     1.4000 
      10   469.0000     1.4000 
      11   469.0000     1.4000 
      12   469.0000     1.4000 
      13   469.0000     1.4240 
      14   340.0000     1.7700 
      15   700.0000     1.4400 
      16   434.0000     1.0100 
      17   367.0000     1.0800 
      18   367.0000     1.0800 
      19   367.0000     1.0800 
      20   367.0000     1.0800 
      21   367.0000     1.0800 
      22   367.0000     1.0800 
      23   340.0000     1.0900 
      24   340.0000     1.0900 
      25   340.0000     1.0900 
      26   546.0000     1.3670 
      27   469.0000     1.4000 

Angle Coeffs 

       1    120.000    107.000
       2     48.370    118.330
       3     56.000    119.440
       4     70.000    105.300
       5     70.000    108.900
       6     70.000    121.600
       7     63.000    120.000
       8     63.000    120.000
       9     63.000    120.000
      10     63.000    120.000
      11     63.000    120.000
      12     56.000    119.440
      13     74.000    108.900
      14    104.000    119.000
      15    100.000    111.000
      16     35.000    120.000
      17     35.000    120.000
      18     35.000    120.000
      19     35.000    120.000
      20     35.000    120.000
      21     35.000    128.200
      22     35.000    109.500
      23     35.000    109.500
      24     35.000    109.500
      25     33.000    107.800
      26     33.000    107.800
      27     63.000    120.000
      28     70.000    111.900
      29     74.000    108.900
      30     63.000    120.000
      31     35.000    120.000
      32     35.000    120.000
      33    120.000    107.000
      34     35.000    125.700
      35     33.000    107.800
      36     35.000    120.000
      37     35.000    120.000
      38    100.000    103.000
      39     35.000    119.800
      40     70.000    132.100
      41     63.000    120.000
      42     70.000    103.800
      43     70.000    110.600
      44     35.000    120.000

Dihedral Coeffs  

       1      0.000      0.000      0.000      0.000 
       2      0.000      2.170      0.000      0.000 
       3      0.000      7.250      0.000      0.000 
       4      0.000      7.250      0.000      0.000 
       5      0.000      5.000      0.000      0.000 
       6      0.000      2.170      0.000      0.000 
       7      0.000      7.250      0.000      0.000 
       8      0.000      7.250      0.000      0.000 
       9      0.000      7.250      0.000      0.000 
      10      0.000      0.000      0.350      0.000 
      11      0.000      0.000      0.000      0.000 
      12      0.000      7.250      0.000      0.000 
      13      2.074     -2.966      2.473      0.000 
      14      0.000      7.250      0.000      0.000 
      15      2.929     -2.533      0.497      0.000 
      16      0.000      0.000      0.000      0.000 
      17      0.000      7.250      0.000      0.000 
      18      0.000      0.000      0.350      0.000 
      19      0.000      2.170      0.000      0.000 
      20      0.000      7.250      0.000      0.000 
      21      0.000      7.250      0.000      0.000 
      22      0.000      0.000      0.350      0.000 
      23      0.000      0.000      0.000      0.000 
      24      0.000      7.250      0.000      0.000 
      25      0.000      7.250      0.000      0.000 
      26      0.000      7.250      0.000      0.000 
      27      0.000      7.250      0.000      0.000 
      28      0.000      7.250      0.000      0.000 
      29      0.000      7.250      0.000      0.000 
      30      0.000      7.250      0.000      0.000 
      31      0.000      7.250      0.000      0.000 
      32      0.000      0.000      0.350      0.000 
      33      0.000      0.000      0.000      0.000 
      34      0.000      0.000      0.350      0.000 
      35      0.000      2.170      0.000      0.000 
      36      0.000      2.170      0.000      0.000 
      37      0.000      0.000      0.350      0.000 
      38      0.000      0.000      0.000      0.000 
      39      0.000      7.250      0.000      0.000 
      40      0.000      4.900      0.000      0.000 
      41      0.000      7.250      0.000      0.000 
      42      0.000      7.250      0.000      0.000 
      43      0.000      7.250      0.000      0.000 
      44      0.000      7.250      0.000      0.000 
      45      0.000      2.170      0.000      0.000 
      46      1.671     -4.901      0.669      0.000 
      47      0.000      7.250      0.000      0.000 
      48      0.000      2.100      0.000      0.000 
      49      0.000      0.000      0.000      0.000 
      50      0.000      7.250      0.000      0.000 
      51      0.000      1.100      0.000      0.000 
      52      0.000      7.250      0.000      0.000 
      53      0.000      7.250      0.000      0.000 
      54      0.000      7.250      0.000      0.000 
      55      0.000      7.250      0.000      0.000 
      56      0.000      7.250      0.000      0.000 
      57      0.000      7.250      0.000      0.000 
      58      0.000      5.000      0.000      0.000 
      59      0.000      7.250      0.000      0.000 
      60      0.000      7.250      0.000      0.000 

Improper Coeffs 

       1      2.500      -1       2 
       2      2.500      -1       2 
       3      0.000      -1       2 
       4      0.000      -1       2 
       5      2.500      -1       2 
       6      2.500      -1       2 
       7      2.500      -1       2 
       8      2.500      -1       2 
       9      2.500      -1       2 
      10      2.500      -1       2 
      11      2.500      -1       2 
      12      0.000      -1       2 
      13      0.000      -1       2 
      14      2.500      -1       2 

Atoms 

     1      1      1 -0.51590000    1.000  1.00000  0.00000
     2      1      2 1.53070000   -0.448  1.00000  0.00000
     3      1      3 -1.41620000   -0.996  1.00000  1.59574
     4      1      4 0.50820000   -0.557  2.02328  2.42397
     5      1      5 -0.33480000   -1.343  3.05682  2.71866
     6      1      6 -0.03040000   -0.583  3.86423  3.55194
     7      1      7 0.13330000    0.627  3.27299  3.78915
     8      1      8 -0.05580000    1.531  3.96266  4.69827
     9      1      9 -0.09740000    1.233  5.23581  5.21410
    10      1     10 -0.15510000    2.116  5.87964  6.08712
    11      1     11 -0.11650000    3.308  5.26092  6.45688
    12      1     12 -0.15440000    3.616  4.00090  5.95447
    13      1     13 -0.10290000    2.738  3.35744  5.08386
    14      1     14 -0.24650000    0.683  2.09565  3.08010
    15      1     15 -0.61100000   -1.023  2.58185 -0.59927
    16      1     16 -0.51590000   -1.201 -0.02898 -0.68523
    17      1     17 0.64300000   -2.011  0.89513  1.59329
    18      1     18 0.16900000    0.308  5.74149  4.94243
    19      1     19 0.15990000    1.870  6.86346  6.47785
    20      1     20 0.15640000    3.995  5.76218  7.13497
    21      1     21 0.15930000    4.544  3.51279  6.24030
    22      1     22 0.15820000    3.009  2.37285  4.71040
    23      1     23 0.22230000    1.479  1.36823  3.06715
    24      1     24 0.17080000   -0.499  3.38415 -0.07931
    25      1     25 0.17080000   -2.102  2.64499 -0.43921
    26      1     26 0.17080000   -0.807  2.63607 -1.66792

Bonds 

     1      1      2      1
     2      2      3      2
     3      3      4      3
     4      4      5      4
     5      5      6      5
     6      6      7      6
     7      7      8      7
     8      8      9      8
     9      9     10      9
    10     10     11     10
    11     11     12     11
    12     12     13      8
    13     13     14      4
    14     14     15      2
    15     15     16      2
    16     16     17      3
    17     17     18      9
    18     18     19     10
    19     19     20     11
    20     20     21     12
    21     21     22     13
    22     22     23     14
    23     23     24     15
    24     24     25     15
    25     25     26     15
    26     26     14      7
    27     27     13     12

Angles 

     1      1      1      2      3
     2      2      2      3      4
     3      3      3      4      5
     4      4      4      5      6
     5      5      5      6      7
     6      6      6      7      8
     7      7      7      8      9
     8      8      8      9     10
     9      9      9     10     11
    10     10     10     11     12
    11     11      7      8     13
    12     12      3      4     14
    13     13      1      2     15
    14     14      1      2     16
    15     15      2      3     17
    16     16      8      9     18
    17     17      9     10     19
    18     18     10     11     20
    19     19     11     12     21
    20     20      8     13     22
    21     21      4     14     23
    22     22      2     15     24
    23     23      2     15     25
    24     24      2     15     26
    25     25     24     15     26
    26     26     24     15     25
    27     27      8     13     12
    28     28      5      4     14
    29     29     15      2     16
    30     30      9      8     13
    31     31     13     12     21
    32     32     12     11     20
    33     33      3      2     16
    34     34      7     14     23
    35     35     25     15     26
    36     36     12     13     22
    37     37     11     10     19
    38     38      3      2     15
    39     39      4      3     17
    40     40      8      7     14
    41     41     11     12     13
    42     42      4     14      7
    43     43      6      7     14
    44     44     10      9     18

Dihedrals

     1      1      4      3      2      1 
     2      2      5      4      3      2 
     3      3      6      5      4      3 
     4      4      7      6      5      4 
     5      5      8      7      6      5 
     6      6      9      8      7      6 
     7      7     10      9      8      7 
     8      8     11     10      9      8 
     9      9     12     11     10      9 
    10     10     24     15      2      1 
    11     11     26     15      2      3 
    12     12     20     11     10     19 
    13     13     15      2      3      4 
    14     14     21     12     11     10 
    15     15     14      4      3      2 
    16     16     24     15      2      3 
    17     17     18      9     10     11 
    18     18     26     15      2      1 
    19     19     13      8      7      6 
    20     20     18      9      8     13 
    21     21     22     13     12     11 
    22     22     25     15      2     16 
    23     23     16      2      3      4 
    24     24     19     10     11     12 
    25     25     21     12     11     20 
    26     26     19     10      9     18 
    27     27     11     12     13      8 
    28     28     13     12     11     10 
    29     29     22     13      8      9 
    30     30      6      7     14      4 
    31     31     23     14      4      5 
    32     32     26     15      2     16 
    33     33     17      3      2     16 
    34     34     24     15      2     16 
    35     35     14      7      8     13 
    36     36      7     14      4      5 
    37     37     25     15      2      1 
    38     38     25     15      2      3 
    39     39     23     14      4      3 
    40     40     17      3      4     14 
    41     41     13      8      9     10 
    42     42     21     12     13      8 
    43     43      8      7     14      4 
    44     44     22     13      8      7 
    45     45     14      7      8      9 
    46     46     17      3      2     15 
    47     47     23     14      7      8 
    48     48     17      3      4      5 
    49     49     17      3      2      1 
    50     50     22     13     12     21 
    51     51      7     14      4      3 
    52     52     18      9      8      7 
    53     53     12     13      8      9 
    54     54     20     11     12     13 
    55     55     20     11     10      9 
    56     56     12     13      8      7 
    57     57     23     14      7      6 
    58     58     14      7      6      5 
    59     59     19     10      9      8 
    60     60     14      4      5      6 

Impropers

     1      1      8      9     13      7 
     2      2      4      3      5     14 
     3      3      2      1      3     15 
     4      4      2      1      3     16 
     5      5      3     17      2      4 
     6      6      9     18     10      8 
     7      7     10      9     19     11 
     8      8     11     12     10     20 
     9      9     12     13     11     21 
    10     10     13     12     22      8 
    11     11     14      7      4     23 
    12     12     15     25      2     24 
    13     13     15     26     24      2 
    14     14      7      6     14      8 
