LAMMPS data file Created by LigParGen - (Written by Leela S. Dodda)

      35 atoms
      36 bonds
      60 angles
      85 dihedrals
      20 impropers
 
      35 atom types
      36 bond types
      60 angle types
      85 dihedral types
      20 improper types
 
   -5.046940    44.953060 xlo xhi
   -0.466100    49.533900 ylo yhi
   -6.200730    43.799270 zlo zhi

Masses

       1     15.999  
       2     12.011  
       3     14.007  
       4     32.060  
       5     12.011  
       6     12.011  
       7     12.011  
       8     12.011  
       9     12.011  
      10     12.011  
      11     15.999  
      12     15.999  
      13     12.011  
      14     12.011  
      15     12.011  
      16     12.011  
      17     12.011  
      18     12.011  
      19     12.011  
      20     12.011  
      21      1.008  
      22      1.008  
      23      1.008  
      24      1.008  
      25      1.008  
      26      1.008  
      27      1.008  
      28      1.008  
      29      1.008  
      30      1.008  
      31      1.008  
      32      1.008  
      33      1.008  
      34      1.008  
      35      1.008  

Pair Coeffs 

       1      0.210  2.9600000 
       2      0.070  3.5500000 
       3      0.170  3.2500000 
       4      0.250  3.5500000 
       5      0.070  3.5500000 
       6      0.070  3.5500000 
       7      0.070  3.5500000 
       8      0.070  3.5500000 
       9      0.070  3.5500000 
      10      0.070  3.5500000 
      11      0.170  2.9600000 
      12      0.170  2.9600000 
      13      0.066  3.5000000 
      14      0.066  3.5000000 
      15      0.070  3.5500000 
      16      0.070  3.5500000 
      17      0.070  3.5500000 
      18      0.070  3.5500000 
      19      0.070  3.5500000 
      20      0.070  3.5500000 
      21      0.000  0.0000000 
      22      0.030  2.4200000 
      23      0.030  2.4200000 
      24      0.030  2.4200000 
      25      0.030  2.4200000 
      26      0.030  2.4200000 
      27      0.030  2.5000000 
      28      0.030  2.5000000 
      29      0.030  2.5000000 
      30      0.030  2.5000000 
      31      0.030  2.4200000 
      32      0.030  2.4200000 
      33      0.030  2.4200000 
      34      0.030  2.4200000 
      35      0.030  2.4200000 

Bond Coeffs 

       1   570.0000     1.2290 
       2   490.0000     1.3350 
       3   434.0000     1.6700 
       4   340.0000     1.7700 
       5   469.0000     1.4000 
       6   469.0000     1.4000 
       7   469.0000     1.4000 
       8   469.0000     1.4000 
       9   469.0000     1.4000 
      10   700.0000     1.4400 
      11   700.0000     1.4400 
      12   317.0000     1.5220 
      13   268.0000     1.5290 
      14   317.0000     1.5100 
      15   469.0000     1.4000 
      16   469.0000     1.4000 
      17   469.0000     1.4000 
      18   469.0000     1.4000 
      19   469.0000     1.4000 
      20   434.0000     1.0100 
      21   367.0000     1.0800 
      22   367.0000     1.0800 
      23   367.0000     1.0800 
      24   367.0000     1.0800 
      25   367.0000     1.0800 
      26   340.0000     1.0900 
      27   340.0000     1.0900 
      28   340.0000     1.0900 
      29   340.0000     1.0900 
      30   367.0000     1.0800 
      31   367.0000     1.0800 
      32   367.0000     1.0800 
      33   367.0000     1.0800 
      34   367.0000     1.0800 
      35   469.0000     1.4000 
      36   469.0000     1.4000 

Angle Coeffs 

       1     80.000    122.900
       2     70.000    112.000
       3    100.000    103.000
       4     85.000    119.400
       5     63.000    120.000
       6     63.000    120.000
       7     63.000    120.000
       8     85.000    119.400
       9    120.000    107.000
      10    120.000    107.000
      11     80.000    120.400
      12     63.000    111.100
      13     63.000    114.000
      14     70.000    120.000
      15     63.000    120.000
      16     63.000    120.000
      17     63.000    120.000
      18     70.000    120.000
      19     35.000    119.800
      20     35.000    120.000
      21     35.000    120.000
      22     35.000    120.000
      23     35.000    120.000
      24     35.000    120.000
      25     35.000    109.500
      26     35.000    109.500
      27     37.500    110.700
      28     37.500    110.700
      29     35.000    120.000
      30     35.000    120.000
      31     35.000    120.000
      32     35.000    120.000
      33     35.000    120.000
      34     35.000    120.000
      35     37.500    110.700
      36     74.000    107.200
      37     35.000    120.000
      38     35.000    120.000
      39     63.000    120.000
      40     35.000    120.000
      41     63.000    120.000
      42    104.000    119.000
      43     35.000    109.500
      44     63.000    120.000
      45     35.000    120.000
      46     35.000    120.000
      47     35.000    120.000
      48    100.000    111.000
      49     70.000    116.600
      50     74.000    107.200
      51     35.000    109.500
      52     35.000    120.000
      53     33.000    107.800
      54     33.000    107.800
      55     63.000    120.000
      56     63.000    120.000
      57     37.500    110.700
      58     35.000    120.000
      59     35.000    120.000
      60     63.000    120.000

Dihedral Coeffs  

       1      0.000      6.089      0.000      0.000 
       2      2.074     -2.966      2.473      0.000 
       3      1.656     -0.768     -0.117      0.000 
       4      0.000      7.250      0.000      0.000 
       5      0.000      7.250      0.000      0.000 
       6      0.000      7.250      0.000      0.000 
       7      0.000      0.000      0.000      0.000 
       8     -1.697     -0.456      0.585      0.000 
       9      0.000      0.000      0.000      0.000 
      10      0.000      7.250      0.000      0.000 
      11      0.000      7.250      0.000      0.000 
      12      0.000      7.250      0.000      0.000 
      13      0.000      7.250      0.000      0.000 
      14      0.000      7.250      0.000      0.000 
      15      0.000      7.250      0.000      0.000 
      16      0.000      7.250      0.000      0.000 
      17      0.000      7.250      0.000      0.000 
      18      0.000      0.000      0.000      0.000 
      19      0.000      0.000      0.000      0.000 
      20      0.000      7.250      0.000      0.000 
      21      0.000      7.250      0.000      0.000 
      22      0.000      7.250      0.000      0.000 
      23      0.000      7.250      0.000      0.000 
      24      0.000      7.250      0.000      0.000 
      25      0.000      7.250      0.000      0.000 
      26      0.000      7.250      0.000      0.000 
      27      0.000      0.000      0.462      0.000 
      28      0.000      7.250      0.000      0.000 
      29      0.000      7.250      0.000      0.000 
      30      0.000      7.250      0.000      0.000 
      31      0.000      7.250      0.000      0.000 
      32      0.000      0.000      0.462      0.000 
      33      0.000      7.250      0.000      0.000 
      34      0.000      7.250      0.000      0.000 
      35      0.000      0.000     -0.100      0.000 
      36      0.000      0.000      0.300      0.000 
      37      0.000      7.250      0.000      0.000 
      38      0.000      7.250      0.000      0.000 
      39      0.000      7.250      0.000      0.000 
      40      0.000      7.250      0.000      0.000 
      41      0.000      0.000      0.000      0.000 
      42      0.000      0.000      0.000      0.000 
      43      0.000      7.250      0.000      0.000 
      44      0.000      7.250      0.000      0.000 
      45      0.000      0.000      0.000      0.000 
      46      0.000      7.250      0.000      0.000 
      47      0.000      7.250      0.000      0.000 
      48      0.000      7.250      0.000      0.000 
      49      1.671     -4.901      0.669      0.000 
      50      1.173      0.189     -1.200      0.000 
      51      0.000      0.000      0.000      0.000 
      52      0.000      7.250      0.000      0.000 
      53      0.000      7.250      0.000      0.000 
      54      0.000      0.000      0.000      0.000 
      55      2.929     -2.533      0.497      0.000 
      56      0.000      4.900      0.000      0.000 
      57      0.000      0.000      0.000      0.000 
      58      0.000      7.250      0.000      0.000 
      59      0.000      7.250      0.000      0.000 
      60      0.000      0.000      0.000      0.000 
      61      0.000      7.250      0.000      0.000 
      62      0.000      0.000      0.000      0.000 
      63      0.000      0.000      0.000      0.000 
      64      0.000      7.250      0.000      0.000 
      65      0.000      7.250      0.000      0.000 
      66      0.000      7.250      0.000      0.000 
      67      0.000      0.000      0.000      0.000 
      68      0.000      0.000      0.300      0.000 
      69      0.000      7.250      0.000      0.000 
      70      0.000      0.000      0.000      0.000 
      71      0.000      7.250      0.000      0.000 
      72      0.000      7.250      0.000      0.000 
      73      0.000      7.250      0.000      0.000 
      74      0.000      0.000      0.000      0.000 
      75      0.000      0.000     -0.100      0.000 
      76      0.000      0.000      0.000      0.000 
      77      0.000      7.250      0.000      0.000 
      78      0.000      0.000      0.300      0.000 
      79      0.000      4.900      0.000      0.000 
      80      0.000      0.000      0.300      0.000 
      81      0.000      7.250      0.000      0.000 
      82      0.000      0.000      0.000      0.000 
      83      0.000      0.000      0.000      0.000 
      84      1.656     -0.768     -0.117      0.000 
      85      0.000      7.250      0.000      0.000 

Improper Coeffs 

       1      2.500      -1       2 
       2      0.000      -1       2 
       3      0.000      -1       2 
       4     10.500      -1       2 
       5      2.500      -1       2 
       6      2.500      -1       2 
       7      2.500      -1       2 
       8      2.500      -1       2 
       9      2.500      -1       2 
      10      2.500      -1       2 
      11      2.500      -1       2 
      12      0.000      -1       2 
      13      0.000      -1       2 
      14      0.000      -1       2 
      15      0.000      -1       2 
      16      2.500      -1       2 
      17      2.500      -1       2 
      18      2.500      -1       2 
      19      2.500      -1       2 
      20      2.500      -1       2 

Atoms 

     1      1      1 -0.36940000    1.000  1.00000  0.00000
     2      1      2 0.84630000   -0.224  1.00000  0.00000
     3      1      3 -1.81280000   -0.967  1.00000  1.18795
     4      1      4 1.63220000   -0.315  0.85011  2.71540
     5      1      5 -0.46940000    0.916  2.11999  2.80424
     6      1      6 -0.03060000    0.537  3.45882  2.66448
     7      1      7 -0.16840000    1.519  4.44986  2.68017
     8      1      8 -0.08120000    2.863  4.09995  2.83414
     9      1      9 -0.16340000    3.230  2.76055  2.97283
    10      1     10 -0.00950000    2.254  1.77042  3.01164
    11      1     11 -0.51720000   -1.383  1.22621  3.61995
    12      1     12 -0.51720000    0.314 -0.44869  2.80441
    13      1     13 -0.19410000   -0.994  0.91594 -1.30150
    14      1     14 -0.12800000   -2.326  1.65697 -1.33379
    15      1     15 -0.09400000   -2.972  1.55805 -2.69501
    16      1     16 -0.14080000   -3.805  0.47362 -3.00495
    17      1     17 -0.14380000   -4.404  0.37855 -4.26388
    18      1     18 -0.14240000   -4.174  1.36448 -5.22063
    19      1     19 -0.14410000   -3.347  2.44555 -4.91959
    20      1     20 -0.13820000   -2.706  2.51594 -3.68289
    21      1     21 0.73060000   -1.978  1.05377  1.21171
    22      1     22 0.15920000   -0.508  3.73077  2.54355
    23      1     23 0.15620000    1.240  5.49513  2.57145
    24      1     24 0.15380000    3.627  4.87314  2.84504
    25      1     25 0.16010000    4.279  2.48821  3.04966
    26      1     26 0.18260000    2.535  0.73685  3.20071
    27      1     27 0.14380000   -1.139 -0.14838 -1.52107
    28      1     28 0.14380000   -0.337  1.31990 -2.08328
    29      1     29 0.10030000   -2.187  2.71067 -1.06067
    30      1     30 0.10030000   -3.020  1.24422 -0.59269
    31      1     31 0.14880000   -3.995 -0.30591 -2.27030
    32      1     32 0.15250000   -5.047 -0.46610 -4.49525
    33      1     33 0.15160000   -4.639  1.28989 -6.20073
    34      1     34 0.15180000   -3.201  3.23485 -5.65231
    35      1     35 0.15050000   -1.998  3.31988 -3.49524

Bonds 

     1      1      2      1
     2      2      3      2
     3      3      4      3
     4      4      5      4
     5      5      6      5
     6      6      7      6
     7      7      8      7
     8      8      9      8
     9      9     10      5
    10     10     11      4
    11     11     12      4
    12     12     13      2
    13     13     14     13
    14     14     15     14
    15     15     16     15
    16     16     17     16
    17     17     18     17
    18     18     19     18
    19     19     20     15
    20     20     21      3
    21     21     22      6
    22     22     23      7
    23     23     24      8
    24     24     25      9
    25     25     26     10
    26     26     27     13
    27     27     28     13
    28     28     29     14
    29     29     30     14
    30     30     31     16
    31     31     32     17
    32     32     33     18
    33     33     34     19
    34     34     35     20
    35     35     10      9
    36     36     20     19

Angles 

     1      1      1      2      3
     2      2      2      3      4
     3      3      3      4      5
     4      4      4      5      6
     5      5      5      6      7
     6      6      6      7      8
     7      7      7      8      9
     8      8      4      5     10
     9      9      3      4     11
    10     10      3      4     12
    11     11      1      2     13
    12     12      2     13     14
    13     13     13     14     15
    14     14     14     15     16
    15     15     15     16     17
    16     16     16     17     18
    17     17     17     18     19
    18     18     14     15     20
    19     19      2      3     21
    20     20      5      6     22
    21     21      6      7     23
    22     22      7      8     24
    23     23      8      9     25
    24     24      5     10     26
    25     25      2     13     27
    26     26      2     13     28
    27     27     13     14     29
    28     28     13     14     30
    29     29     15     16     31
    30     30     16     17     32
    31     31     17     18     33
    32     32     18     19     34
    33     33     15     20     35
    34     34     19     18     33
    35     35     14     13     27
    36     36      5      4     12
    37     37     18     17     32
    38     38      7      6     22
    39     39      6      5     10
    40     40     20     19     34
    41     41      5     10      9
    42     42     11      4     12
    43     43     15     14     30
    44     44     16     15     20
    45     45      8      7     23
    46     46     19     20     35
    47     47     10      9     25
    48     48      4      3     21
    49     49      3      2     13
    50     50      5      4     11
    51     51     15     14     29
    52     52      9     10     26
    53     53     29     14     30
    54     54     27     13     28
    55     55     15     20     19
    56     56      8      9     10
    57     57     14     13     28
    58     58     17     16     31
    59     59      9      8     24
    60     60     18     19     20

Dihedrals

     1      1      4      3      2      1 
     2      2      5      4      3      2 
     3      3      6      5      4      3 
     4      4      7      6      5      4 
     5      5      8      7      6      5 
     6      6      9      8      7      6 
     7      7     14     13      2      1 
     8      8     15     14     13      2 
     9      9     16     15     14     13 
    10     10     17     16     15     14 
    11     11     18     17     16     15 
    12     12     19     18     17     16 
    13     13     33     18     17     16 
    14     14     19     20     15     16 
    15     15     19     20     15     14 
    16     16     25      9     10      5 
    17     17     26     10      5      4 
    18     18     30     14     15     20 
    19     19     28     13      2      3 
    20     20     20     19     18     17 
    21     21     26     10      5      6 
    22     22     35     20     19     34 
    23     23     25      9      8     24 
    24     24     35     20     15     14 
    25     25     23      7      8      9 
    26     26     35     20     15     16 
    27     27     27     13     14     15 
    28     28      8      9     10      5 
    29     29     25      9      8      7 
    30     30     32     17     16     31 
    31     31     33     18     17     32 
    32     32     28     13     14     15 
    33     33      9     10      5      6 
    34     34     24      8      7      6 
    35     35     29     14     13      2 
    36     36     30     14     13     28 
    37     37     34     19     18     17 
    38     38     31     16     17     18 
    39     39     10      5      6      7 
    40     40     26     10      9      8 
    41     41     30     14     15     16 
    42     42     27     13      2      1 
    43     43     22      6      5      4 
    44     44     33     18     19     20 
    45     45     11      4      3      2 
    46     46     10      9      8      7 
    47     47     22      6      5     10 
    48     48     23      7      6      5 
    49     49     21      3      4      5 
    50     50     14     13      2      3 
    51     51     12      4      5     10 
    52     52     31     16     15     20 
    53     53     31     16     15     14 
    54     54     21      3      4     11 
    55     55     13      2      3      4 
    56     56     21      3      2      1 
    57     57     29     14     15     20 
    58     58     22      6      7      8 
    59     59     24      8      7     23 
    60     60     12      4      5      6 
    61     61     24      8      9     10 
    62     62     27     13      2      3 
    63     63     21      3      4     12 
    64     64     32     17     18     19 
    65     65     18     19     20     15 
    66     66     34     19     18     33 
    67     67     20     15     14     13 
    68     68     29     14     13     27 
    69     69     35     20     19     18 
    70     70     29     14     15     16 
    71     71     26     10      9     25 
    72     72     23      7      6     22 
    73     73      9     10      5      4 
    74     74     11      4      5     10 
    75     75     30     14     13      2 
    76     76     28     13      2      1 
    77     77     34     19     20     15 
    78     78     30     14     13     27 
    79     79     21      3      2     13 
    80     80     29     14     13     28 
    81     81     20     15     16     17 
    82     82     12      4      3      2 
    83     83     11      4      5      6 
    84     84     10      5      4      3 
    85     85     32     17     16     15 

Impropers

     1      1      5     10      4      6 
     2      2      4     11      5      3 
     3      3      4      3     12      5 
     4      4      2      1      3     13 
     5      5     15     20     14     16 
     6      6      3      2      4     21 
     7      7      6      5     22      7 
     8      8      7      8     23      6 
     9      9      8      9      7     24 
    10     10      9     25     10      8 
    11     11     10      9     26      5 
    12     12     13      2     27     14 
    13     13     13      2     28     14 
    14     14     14     13     29     15 
    15     15     14     13     30     15 
    16     16     16     17     15     31 
    17     17     17     18     16     32 
    18     18     18     33     19     17 
    19     19     19     34     20     18 
    20     20     20     35     19     15 
