LAMMPS data file Created by LigParGen - (Written by Leela S. Dodda)

      43 atoms
      45 bonds
      81 angles
     122 dihedrals
      31 impropers
 
      43 atom types
      45 bond types
      81 angle types
     122 dihedral types
      31 improper types
 
   -7.908110    42.091890 xlo xhi
   -2.179670    47.820330 ylo yhi
   -2.547000    47.453000 zlo zhi

Masses

       1     15.999  
       2     32.060  
       3     14.007  
       4     12.011  
       5     12.011  
       6     32.060  
       7     12.011  
       8     15.999  
       9     15.999  
      10     12.011  
      11     12.011  
      12     12.011  
      13     12.011  
      14     12.011  
      15     12.011  
      16     12.011  
      17     12.011  
      18     12.011  
      19     12.011  
      20     12.011  
      21     12.011  
      22     12.011  
      23     12.011  
      24     15.999  
      25      1.008  
      26      1.008  
      27      1.008  
      28      1.008  
      29      1.008  
      30      1.008  
      31      1.008  
      32      1.008  
      33      1.008  
      34      1.008  
      35      1.008  
      36      1.008  
      37      1.008  
      38      1.008  
      39      1.008  
      40      1.008  
      41      1.008  
      42      1.008  
      43      1.008  

Pair Coeffs 

       1      0.170  2.9600000 
       2      0.250  3.5500000 
       3      0.170  3.2500000 
       4      0.083  3.4500000 
       5      0.083  3.4500000 
       6      0.250  3.5500000 
       7      0.083  3.4500000 
       8      0.170  2.9600000 
       9      0.170  2.9600000 
      10      0.066  3.5000000 
      11      0.066  3.5000000 
      12      0.070  3.5500000 
      13      0.070  3.5500000 
      14      0.070  3.5500000 
      15      0.070  3.5500000 
      16      0.070  3.5500000 
      17      0.070  3.5500000 
      18      0.070  3.5500000 
      19      0.070  3.5500000 
      20      0.070  3.5500000 
      21      0.070  3.5500000 
      22      0.070  3.5500000 
      23      0.070  3.5500000 
      24      0.170  2.9600000 
      25      0.000  0.0000000 
      26      0.030  2.5000000 
      27      0.030  2.5000000 
      28      0.030  2.5000000 
      29      0.030  2.5000000 
      30      0.030  2.5000000 
      31      0.030  2.5000000 
      32      0.030  2.5000000 
      33      0.030  2.5000000 
      34      0.030  2.4200000 
      35      0.030  2.4200000 
      36      0.030  2.4200000 
      37      0.030  2.4200000 
      38      0.030  2.4200000 
      39      0.030  2.4200000 
      40      0.030  2.4200000 
      41      0.030  2.4200000 
      42      0.030  2.4200000 
      43      0.030  2.4200000 

Bond Coeffs 

       1   700.0000     1.4400 
       2   434.0000     1.6700 
       3   337.0000     1.4490 
       4   260.0000     1.5200 
       5   222.0000     1.8100 
       6   260.0000     1.5200 
       7   700.0000     1.4400 
       8   700.0000     1.4400 
       9   280.0000     1.5100 
      10   268.0000     1.5290 
      11   317.0000     1.5100 
      12   469.0000     1.4000 
      13   469.0000     1.4000 
      14   469.0000     1.4000 
      15   469.0000     1.4000 
      16   469.0000     1.4000 
      17   340.0000     1.7700 
      18   469.0000     1.4000 
      19   469.0000     1.4000 
      20   469.0000     1.4000 
      21   469.0000     1.4000 
      22   469.0000     1.4000 
      23   700.0000     1.4400 
      24   434.0000     1.0100 
      25   340.0000     1.0880 
      26   340.0000     1.0880 
      27   340.0000     1.0880 
      28   340.0000     1.0880 
      29   340.0000     1.0900 
      30   340.0000     1.0900 
      31   340.0000     1.0900 
      32   340.0000     1.0900 
      33   367.0000     1.0800 
      34   367.0000     1.0800 
      35   367.0000     1.0800 
      36   367.0000     1.0800 
      37   367.0000     1.0800 
      38   367.0000     1.0800 
      39   367.0000     1.0800 
      40   367.0000     1.0800 
      41   367.0000     1.0800 
      42   367.0000     1.0800 
      43   340.0000     1.7700 
      44   469.0000     1.4000 
      45   469.0000     1.4000 

Angle Coeffs 

       1    120.000    107.000
       2     50.000    120.000
       3     37.500    126.000
       4     55.000    128.000
       5     37.500    126.000
       6     74.000    108.900
       7     74.000    108.900
       8     80.000    109.700
       9     58.350    112.700
      10     63.000    114.000
      11     70.000    120.000
      12     63.000    120.000
      13     63.000    120.000
      14     63.000    120.000
      15     70.000    120.000
      16     74.000    107.200
      17     85.000    119.400
      18     63.000    120.000
      19     63.000    120.000
      20     63.000    120.000
      21     85.000    119.400
      22    104.000    119.000
      23    100.000    111.000
      24     37.500    117.200
      25     37.500    117.200
      26     37.500    117.200
      27     37.500    117.200
      28     37.500    110.700
      29     37.500    110.700
      30     37.500    110.700
      31     37.500    110.700
      32     35.000    120.000
      33     35.000    120.000
      34     35.000    120.000
      35     35.000    120.000
      36     35.000    120.000
      37     35.000    120.000
      38     35.000    120.000
      39     35.000    120.000
      40     35.000    120.000
      41     35.000    120.000
      42     35.000    120.000
      43     35.000    120.000
      44     74.000    108.900
      45     30.000     83.000
      46     35.000    120.000
      47     63.000    120.000
      48     35.000    120.000
      49     35.000    120.000
      50     62.000    102.000
      51     35.000    109.500
      52     35.000    120.000
      53     35.000    120.000
      54     33.000    107.800
      55     37.500    108.000
      56     63.000    120.000
      57     35.000    120.000
      58     63.000    120.000
      59     35.000    114.300
      60     35.000    114.300
      61     33.000    107.800
      62     35.000    120.000
      63     40.000    113.000
      64     35.000    120.000
      65     74.000    108.900
      66     74.000    107.200
      67     55.000    128.000
      68     37.500    108.000
      69     63.000    120.000
      70     37.500    117.200
      71    104.000    119.000
      72    120.000    107.000
      73     63.000    120.000
      74    100.000    103.000
      75     37.500    110.700
      76     35.000    109.500
      77     37.500    117.200
      78     63.000    120.000
      79     37.500    108.000
      80     37.500    108.000
      81     37.500    110.700

Dihedral Coeffs  

       1      0.000      0.000      0.000      0.000 
       2      2.929     -2.533      0.497      0.000 
       3      0.000      0.000      0.000      0.000 
       4      0.845     -0.962      0.713      0.000 
       5     -1.697     -0.456      0.585      0.000 
       6      0.000      0.000      0.000      0.000 
       7      0.000      7.250      0.000      0.000 
       8      0.000      7.250      0.000      0.000 
       9      0.000      7.250      0.000      0.000 
      10      0.000      0.000      0.000      0.000 
      11      0.000      7.250      0.000      0.000 
      12      0.000      7.250      0.000      0.000 
      13      0.000      7.250      0.000      0.000 
      14      0.000      0.000      0.000      0.000 
      15      0.000      7.250      0.000      0.000 
      16      0.000      0.000      0.462      0.000 
      17      0.000      0.000      0.000      0.000 
      18      0.000      0.000      0.000      0.000 
      19      0.000      0.000      0.000      0.000 
      20      0.000      0.000      0.350      0.000 
      21      0.000      0.000      0.000      0.000 
      22      0.000      0.000      0.000      0.000 
      23      0.000      7.250      0.000      0.000 
      24      0.000      0.000      0.000      0.000 
      25      0.000      7.250      0.000      0.000 
      26      0.000      0.000      0.000      0.000 
      27      0.000      7.250      0.000      0.000 
      28      0.000      0.000      0.000      0.000 
      29      0.000      0.000      0.350      0.000 
      30      0.000      0.000      0.000      0.000 
      31      0.000      7.250      0.000      0.000 
      32      0.000      0.000      0.000      0.000 
      33      0.000      7.250      0.000      0.000 
      34      0.000      7.250      0.000      0.000 
      35      0.000      7.250      0.000      0.000 
      36      0.000      0.000      0.000      0.000 
      37      0.000      7.250      0.000      0.000 
      38      0.000      0.000      0.300      0.000 
      39      0.000      7.250      0.000      0.000 
      40      0.000      0.000      0.000      0.000 
      41      0.000      7.250      0.000      0.000 
      42      0.000      0.000      0.350      0.000 
      43      0.000      0.000      0.350      0.000 
      44      0.000      7.250      0.000      0.000 
      45      0.000      0.000      0.300      0.000 
      46      0.000      0.000      0.350      0.000 
      47      0.000      0.000      0.000      0.000 
      48      0.000      0.000      0.000      0.000 
      49      0.000      7.250      0.000      0.000 
      50      0.000      0.000      0.000      0.000 
      51      0.000      0.000      0.000      0.000 
      52      1.656     -0.768     -0.117      0.000 
      53      0.000      7.250      0.000      0.000 
      54      2.929     -2.533      0.497      0.000 
      55      0.000      7.250      0.000      0.000 
      56      1.656     -0.768     -0.117      0.000 
      57      0.000      7.250      0.000      0.000 
      58      0.000      0.000      0.000      0.000 
      59      0.000      0.000      0.350      0.000 
      60      0.000      0.000      0.350      0.000 
      61      0.000      0.000      0.000      0.000 
      62      0.000      7.250      0.000      0.000 
      63      0.000      7.250      0.000      0.000 
      64      0.000      0.000      0.000      0.000 
      65      0.000      0.000      0.000      0.000 
      66      0.000      0.000      0.300      0.000 
      67      0.000      7.250      0.000      0.000 
      68      0.000      0.000      0.000      0.000 
      69      0.000      7.250      0.000      0.000 
      70      0.000      7.250      0.000      0.000 
      71      0.000      0.000      0.350      0.000 
      72      0.000      0.000      0.350      0.000 
      73      0.000      0.000      0.300      0.000 
      74      0.000      7.250      0.000      0.000 
      75      0.000      0.000      0.300      0.000 
      76      0.000      0.000      0.300      0.000 
      77      0.000      0.000      0.000      0.000 
      78      0.000      7.250      0.000      0.000 
      79      0.000      0.000      0.000      0.000 
      80      0.000      7.250      0.000      0.000 
      81      0.000      0.000      0.000      0.000 
      82      0.000      7.250      0.000      0.000 
      83      0.000      7.250      0.000      0.000 
      84      0.000      0.000      0.462      0.000 
      85      0.000      7.250      0.000      0.000 
      86      0.000      0.000      0.000      0.000 
      87      0.000      7.250      0.000      0.000 
      88      2.929     -2.533      0.497      0.000 
      89      0.000      0.000      0.300      0.000 
      90      0.000      7.250      0.000      0.000 
      91      0.000      7.250      0.000      0.000 
      92      0.000      7.250      0.000      0.000 
      93      0.000      0.000      0.000      0.000 
      94      0.000      0.000      0.000      0.000 
      95      0.000      7.250      0.000      0.000 
      96      0.000      7.250      0.000      0.000 
      97      0.000      0.000      0.350      0.000 
      98      0.000      7.250      0.000      0.000 
      99      0.000      0.000      0.000      0.000 
     100      0.000      0.000      0.000      0.000 
     101      0.000      0.000      0.000      0.000 
     102      0.000      7.250      0.000      0.000 
     103      0.000      7.250      0.000      0.000 
     104      0.000      0.000      0.000      0.000 
     105      0.000      0.000      0.000      0.000 
     106      0.000      7.250      0.000      0.000 
     107      2.074     -2.966      2.473      0.000 
     108      0.000      0.000      0.350      0.000 
     109      1.671     -4.901      0.669      0.000 
     110      0.000      7.250      0.000      0.000 
     111      0.000      7.250      0.000      0.000 
     112      0.000      0.000      0.000      0.000 
     113      0.000      7.250      0.000      0.000 
     114      0.000      0.000      0.300      0.000 
     115      0.000      0.000      0.000      0.000 
     116      0.000      7.250      0.000      0.000 
     117      0.000      0.000      0.350      0.000 
     118      0.000      7.250      0.000      0.000 
     119      0.000      0.000      0.000      0.000 
     120      0.000      0.000      0.300      0.000 
     121      0.000      0.000      0.300      0.000 
     122      0.000      0.000      0.000      0.000 

Improper Coeffs 

       1      0.000      -1       2 
       2      0.000      -1       2 
       3      0.000      -1       2 
       4      0.000      -1       2 
       5      2.500      -1       2 
       6      0.000      -1       2 
       7      2.500      -1       2 
       8      0.000      -1       2 
       9      2.500      -1       2 
      10      0.000      -1       2 
      11      0.000      -1       2 
      12      0.000      -1       2 
      13      0.000      -1       2 
      14      0.000      -1       2 
      15      0.000      -1       2 
      16      0.000      -1       2 
      17      0.000      -1       2 
      18      2.500      -1       2 
      19      2.500      -1       2 
      20      2.500      -1       2 
      21      2.500      -1       2 
      22      2.500      -1       2 
      23      2.500      -1       2 
      24      2.500      -1       2 
      25      2.500      -1       2 
      26      2.500      -1       2 
      27      2.500      -1       2 
      28      0.000      -1       2 
      29      0.000      -1       2 
      30      0.000      -1       2 
      31      0.000      -1       2 

Atoms 

     1      1      1 -0.51920000    1.000  1.00000  0.00000
     2      1      2 1.63200000   -0.446  1.00000  0.00000
     3      1      3 -1.65960000   -0.894  1.00000  1.64100
     4      1      4 0.56040000   -2.199  1.45920  2.28290
     5      1      5 -0.52730000   -2.242  1.30132  3.84329
     6      1      6 1.33010000   -3.023  2.87485  4.02107
     7      1      7 -0.57370000   -2.318  3.01697  2.41516
     8      1      8 -0.53920000   -2.328  3.70784  4.97415
     9      1      9 -0.53920000   -4.466  2.77094  3.96577
    10      1     10 -0.17770000   -3.401  0.82547  1.55627
    11      1     11 -0.11880000   -3.437 -0.70670  1.62035
    12      1     12 -0.09610000   -4.527 -1.21775  0.70595
    13      1     13 -0.13340000   -4.240 -1.52983 -0.63031
    14      1     14 -0.15370000   -5.263 -1.87522 -1.51348
    15      1     15 -0.14820000   -6.582 -1.91177 -1.06903
    16      1     16 -0.15240000   -6.877 -1.60297  0.25786
    17      1     17 -0.14360000   -5.853 -1.28278  1.14900
    18      1     18 -0.51510000   -0.985  2.59076 -0.55852
    19      1     19 -0.03700000   -0.261  3.72126 -0.16796
    20      1     20 -0.17020000   -0.735  4.98626 -0.50866
    21      1     21 -0.08580000   -1.921  5.11471 -1.23338
    22      1     22 -0.17050000   -2.638  3.98060 -1.61987
    23      1     23 -0.02870000   -2.115  2.70641 -1.37375
    24      1     24 -0.51920000   -1.207 -0.01883 -0.68201
    25      1     25 0.67740000   -0.042  1.12463  2.19566
    26      1     26 0.18470000   -1.262  1.28589  4.33322
    27      1     27 0.18470000   -2.846  0.48141  4.23868
    28      1     28 0.18450000   -1.361  3.54931  2.45901
    29      1     29 0.18450000   -2.971  3.51306  1.69262
    30      1     30 0.12270000   -3.407  1.14939  0.51253
    31      1     31 0.12270000   -4.344  1.20785  1.96376
    32      1     32 0.10940000   -3.629 -1.04651  2.64659
    33      1     33 0.10940000   -2.478 -1.15234  1.33777
    34      1     34 0.18060000   -3.215 -1.50484 -0.99364
    35      1     35 0.14930000   -5.026 -2.11363 -2.54700
    36      1     36 0.14570000   -7.379 -2.17967 -1.75726
    37      1     37 0.14690000   -7.908 -1.61055  0.59927
    38      1     38 0.14740000   -6.095 -1.08307  2.19006
    39      1     39 0.16970000    0.662  3.62109  0.39752
    40      1     40 0.16090000   -0.180  5.87235 -0.20875
    41      1     41 0.15770000   -2.287  6.10401 -1.49872
    42      1     42 0.16300000   -3.603  4.08908 -2.11072
    43      1     43 0.18510000   -2.585  1.82696 -1.81128

Bonds 

     1      1      2      1
     2      2      3      2
     3      3      4      3
     4      4      5      4
     5      5      6      5
     6      6      7      4
     7      7      8      6
     8      8      9      6
     9      9     10      4
    10     10     11     10
    11     11     12     11
    12     12     13     12
    13     13     14     13
    14     14     15     14
    15     15     16     15
    16     16     17     12
    17     17     18      2
    18     18     19     18
    19     19     20     19
    20     20     21     20
    21     21     22     21
    22     22     23     18
    23     23     24      2
    24     24     25      3
    25     25     26      5
    26     26     27      5
    27     27     28      7
    28     28     29      7
    29     29     30     10
    30     30     31     10
    31     31     32     11
    32     32     33     11
    33     33     34     13
    34     34     35     14
    35     35     36     15
    36     36     37     16
    37     37     38     17
    38     38     39     19
    39     39     40     20
    40     40     41     21
    41     41     42     22
    42     42     43     23
    43     43      7      6
    44     44     17     16
    45     45     23     22

Angles 

     1      1      1      2      3
     2      2      2      3      4
     3      3      3      4      5
     4      4      4      5      6
     5      5      3      4      7
     6      6      5      6      8
     7      7      5      6      9
     8      8      3      4     10
     9      9      4     10     11
    10     10     10     11     12
    11     11     11     12     13
    12     12     12     13     14
    13     13     13     14     15
    14     14     14     15     16
    15     15     11     12     17
    16     16      1      2     18
    17     17      2     18     19
    18     18     18     19     20
    19     19     19     20     21
    20     20     20     21     22
    21     21      2     18     23
    22     22      1      2     24
    23     23      2      3     25
    24     24      4      5     26
    25     25      4      5     27
    26     26      4      7     28
    27     27      4      7     29
    28     28      4     10     30
    29     29      4     10     31
    30     30     10     11     32
    31     31     10     11     33
    32     32     12     13     34
    33     33     13     14     35
    34     34     14     15     36
    35     35     15     16     37
    36     36     12     17     38
    37     37     18     19     39
    38     38     19     20     40
    39     39     20     21     41
    40     40     21     22     42
    41     41     18     23     43
    42     42     20     19     39
    43     43     15     14     35
    44     44      7      6      9
    45     45      5      4      7
    46     46     16     15     36
    47     47     21     22     23
    48     48     22     21     41
    49     49     16     17     38
    50     50      5      6      7
    51     51     12     11     32
    52     52     21     20     40
    53     53     14     13     34
    54     54     32     11     33
    55     55      6      5     27
    56     56     18     23     22
    57     57     17     16     37
    58     58     13     12     17
    59     59     26      5     27
    60     60     28      7     29
    61     61     30     10     31
    62     62     22     23     43
    63     63      4      3     25
    64     64     23     22     42
    65     65      7      6      8
    66     66     18      2     24
    67     67      4      7      6
    68     68      6      5     26
    69     69     12     17     16
    70     70      7      4     10
    71     71      8      6      9
    72     72      3      2     24
    73     73     15     16     17
    74     74      3      2     18
    75     75     11     10     30
    76     76     12     11     33
    77     77      5      4     10
    78     78     19     18     23
    79     79      6      7     28
    80     80      6      7     29
    81     81     11     10     31

Dihedrals

     1      1      4      3      2      1 
     2      2      5      4      3      2 
     3      3      6      5      4      3 
     4      4     11     10      4      3 
     5      5     12     11     10      4 
     6      6     13     12     11     10 
     7      7     14     13     12     11 
     8      8     15     14     13     12 
     9      9     16     15     14     13 
    10     10     19     18      2      1 
    11     11     20     19     18      2 
    12     12     21     20     19     18 
    13     13     22     21     20     19 
    14     14     25      3      4      7 
    15     15     36     15     14     13 
    16     16     31     10     11     12 
    17     17     25      3      4      5 
    18     18     17     12     11     10 
    19     19     25      3      4     10 
    20     20     28      7      6      8 
    21     21      8      6      5      4 
    22     22      9      6      5      4 
    23     23     42     22     23     18 
    24     24     33     11     12     17 
    25     25     39     19     18     23 
    26     26     11     10      4      5 
    27     27     39     19     18      2 
    28     28     32     11     12     13 
    29     29     28      7      6      5 
    30     30      6      7      4      3 
    31     31     40     20     19     39 
    32     32     29      7      4      3 
    33     33     17     16     15     14 
    34     34     36     15     16     17 
    35     35     42     22     21     41 
    36     36      9      6      7      4 
    37     37     38     17     12     11 
    38     38     30     10      4      7 
    39     39     42     22     21     20 
    40     40     24      2     18     19 
    41     41     22     23     18     19 
    42     42     27      5      6      8 
    43     43     26      5      6      9 
    44     44     36     15     14     35 
    45     45     32     11     10     30 
    46     46     29      7      6      9 
    47     47     28      7      4     10 
    48     48      8      6      7      4 
    49     49     23     18     19     20 
    50     50     24      2     18     23 
    51     51     28      7      4      5 
    52     52     23     18      2      3 
    53     53     15     16     17     12 
    54     54      7      4      3      2 
    55     55     43     23     22     42 
    56     56     19     18      2      3 
    57     57     41     21     20     40 
    58     58     29      7      4     10 
    59     59     27      5      6      7 
    60     60     26      5      6      8 
    61     61     32     11     12     17 
    62     62     38     17     16     15 
    63     63     43     23     22     21 
    64     64     24      2      3      4 
    65     65     27      5      4      7 
    66     66     32     11     10     31 
    67     67     16     17     12     11 
    68     68     25      3      2     24 
    69     69     23     22     21     20 
    70     70     37     16     15     14 
    71     71     28      7      6      9 
    72     72     29      7      6      8 
    73     73     31     10      4      5 
    74     74     41     21     22     23 
    75     75     33     11     10      4 
    76     76     33     11     10     31 
    77     77     30     10      4      3 
    78     78     16     17     12     13 
    79     79     27      5      4     10 
    80     80     38     17     16     37 
    81     81     26      5      4      7 
    82     82     35     14     15     16 
    83     83     35     14     13     34 
    84     84     30     10     11     12 
    85     85     35     14     13     12 
    86     86     26      5      4      3 
    87     87     40     20     21     22 
    88     88     10      4      3      2 
    89     89     30     10      4      5 
    90     90     21     22     23     18 
    91     91     43     23     18      2 
    92     92     34     13     12     17 
    93     93     23     18      2      1 
    94     94     11     10      4      7 
    95     95     37     16     15     36 
    96     96     22     23     18      2 
    97     97     29      7      6      5 
    98     98     34     13     14     15 
    99     99     27      5      4      3 
   100    100     28      7      4      3 
   101    101     31     10      4      3 
   102    102     43     23     18     19 
   103    103     38     17     12     13 
   104    104     26      5      4     10 
   105    105     25      3      2      1 
   106    106     39     19     20     21 
   107    107     18      2      3      4 
   108    108     27      5      6      9 
   109    109     25      3      2     18 
   110    110     40     20     19     18 
   111    111     41     21     20     19 
   112    112     33     11     12     13 
   113    113     17     12     13     14 
   114    114     32     11     10      4 
   115    115     10      4      5      6 
   116    116     37     16     17     12 
   117    117     26      5      6      7 
   118    118     34     13     12     11 
   119    119     10      4      7      6 
   120    120     33     11     10     30 
   121    121     31     10      4      7 
   122    122     29      7      4      5 

Impropers

     1      1      4      3      5      7 
     2      2      6      5      7      8 
     3      3      6      9      5      7 
     4      4      4     10      3      5 
     5      5     12     17     11     13 
     6      6      2      1     18      3 
     7      7     18     19     23      2 
     8      8      2      1      3     24 
     9      9      3     25      2      4 
    10     10      5     26      4      6 
    11     11      5     27      4      6 
    12     12      7      4     28      6 
    13     13      7      4     29      6 
    14     14     10     11      4     30 
    15     15     10     11      4     31 
    16     16     11     10     12     32 
    17     17     11     33     10     12 
    18     18     13     34     12     14 
    19     19     14     35     13     15 
    20     20     15     36     14     16 
    21     21     16     17     37     15 
    22     22     17     12     38     16 
    23     23     19     18     20     39 
    24     24     20     19     21     40 
    25     25     21     41     20     22 
    26     26     22     42     21     23 
    27     27     23     18     43     22 
    28     28      4      5      6      7 
    29     29      4      5      6      7 
    30     30      4      5      6      7 
    31     31      4      5      6      7 
