LAMMPS data file Created by LigParGen - (Written by Leela S. Dodda)

      27 atoms
      27 bonds
      45 angles
      59 dihedrals
      15 impropers
 
      27 atom types
      27 bond types
      45 angle types
      59 dihedral types
      15 improper types
 
   -2.842960    47.157040 xlo xhi
   -8.195150    41.804850 ylo yhi
   -4.030560    45.969440 zlo zhi

Masses

       1     12.011  
       2     32.060  
       3     15.999  
       4     15.999  
       5     14.007  
       6     12.011  
       7     15.999  
       8     14.007  
       9     12.011  
      10     12.011  
      11     12.011  
      12     12.011  
      13     12.011  
      14     12.011  
      15     12.011  
      16      1.008  
      17      1.008  
      18      1.008  
      19      1.008  
      20      1.008  
      21      1.008  
      22      1.008  
      23      1.008  
      24      1.008  
      25      1.008  
      26      1.008  
      27      1.008  

Pair Coeffs 

       1      0.066  3.5000000 
       2      0.250  3.5500000 
       3      0.170  2.9600000 
       4      0.170  2.9600000 
       5      0.170  3.2500000 
       6      0.070  3.5500000 
       7      0.210  2.9600000 
       8      0.170  3.2500000 
       9      0.066  3.5000000 
      10      0.070  3.5500000 
      11      0.070  3.5500000 
      12      0.070  3.5500000 
      13      0.070  3.5500000 
      14      0.070  3.5500000 
      15      0.070  3.5500000 
      16      0.030  2.5000000 
      17      0.030  2.5000000 
      18      0.030  2.5000000 
      19      0.000  0.0000000 
      20      0.000  0.0000000 
      21      0.030  2.5000000 
      22      0.030  2.5000000 
      23      0.030  2.4200000 
      24      0.030  2.4200000 
      25      0.030  2.4200000 
      26      0.030  2.4200000 
      27      0.030  2.4200000 

Bond Coeffs 

       1   340.0000     1.7700 
       2   700.0000     1.4400 
       3   700.0000     1.4400 
       4   434.0000     1.6700 
       5   490.0000     1.3350 
       6   570.0000     1.2290 
       7   490.0000     1.3350 
       8   337.0000     1.4490 
       9   317.0000     1.5100 
      10   469.0000     1.4000 
      11   469.0000     1.4000 
      12   469.0000     1.4000 
      13   469.0000     1.4000 
      14   469.0000     1.4000 
      15   340.0000     1.0900 
      16   340.0000     1.0900 
      17   340.0000     1.0900 
      18   434.0000     1.0100 
      19   434.0000     1.0100 
      20   340.0000     1.0900 
      21   340.0000     1.0900 
      22   367.0000     1.0800 
      23   367.0000     1.0800 
      24   367.0000     1.0800 
      25   367.0000     1.0800 
      26   367.0000     1.0800 
      27   469.0000     1.4000 

Angle Coeffs 

       1     74.000    108.900
       2     74.000    108.900
       3    100.000    103.000
       4     70.000    112.000
       5     80.000    122.900
       6     70.000    114.200
       7     50.000    121.900
       8     51.650    110.580
       9     70.000    120.000
      10     63.000    120.000
      11     63.000    120.000
      12     63.000    120.000
      13     70.000    120.000
      14     35.000    109.500
      15     35.000    109.500
      16     35.000    109.500
      17    100.000    111.000
      18     35.000    119.800
      19     35.000    109.500
      20     35.000    109.500
      21     35.000    120.000
      22     35.000    120.000
      23     35.000    120.000
      24     35.000    120.000
      25     35.000    120.000
      26     63.000    120.000
      27     38.000    118.400
      28     63.000    120.000
      29     35.000    119.800
      30     35.000    120.000
      31     33.000    107.800
      32     33.000    107.800
      33     35.000    120.000
      34     35.000    120.000
      35     63.000    120.000
      36     33.000    107.800
      37    104.000    119.000
      38     80.000    122.900
      39    120.000    107.000
      40     35.000    120.000
      41     35.000    120.000
      42     35.000    109.500
      43    120.000    107.000
      44     33.000    107.800
      45     35.000    109.500

Dihedral Coeffs  

       1      2.074     -2.966      2.473      0.000 
       2      0.000      6.089      0.000      0.000 
       3      4.600      0.000      0.000      0.000 
       4     -2.365      0.912     -0.850      0.000 
       5      0.000      0.000      0.000      0.000 
       6      0.000      7.250      0.000      0.000 
       7      0.000      7.250      0.000      0.000 
       8      0.000      7.250      0.000      0.000 
       9      0.000      0.000      0.350      0.000 
      10      0.000      0.000      0.000      0.000 
      11      0.000      7.250      0.000      0.000 
      12      0.000      7.250      0.000      0.000 
      13      0.000      7.250      0.000      0.000 
      14      0.000      0.000      0.000      0.000 
      15      0.000      7.250      0.000      0.000 
      16      0.000      7.250      0.000      0.000 
      17      0.000      6.089      0.000      0.000 
      18      0.000      0.000      0.000      0.000 
      19      0.000      0.000      0.000      0.000 
      20      0.000      7.250      0.000      0.000 
      21      0.000      0.000      0.000      0.000 
      22      0.000      0.000      0.000      0.000 
      23      0.000      4.900      0.000      0.000 
      24      0.000      4.900      0.000      0.000 
      25      0.000      0.000      0.000      0.000 
      26      0.000      0.000      0.000      0.000 
      27      0.000      0.000      0.000      0.000 
      28      0.000      7.250      0.000      0.000 
      29      0.000      7.250      0.000      0.000 
      30      0.000      7.250      0.000      0.000 
      31      0.000      7.250      0.000      0.000 
      32      0.000      0.000      0.350      0.000 
      33      0.000      0.000      0.000      0.000 
      34      0.000      0.000      0.350      0.000 
      35      0.000      7.250      0.000      0.000 
      36      0.000      4.900      0.000      0.000 
      37      0.000      4.900      0.000      0.000 
      38      1.671     -4.901      0.669      0.000 
      39      0.000      7.250      0.000      0.000 
      40      0.000      7.250      0.000      0.000 
      41      0.000      7.250      0.000      0.000 
      42      0.000      0.000      0.000      0.000 
      43      0.000      7.250      0.000      0.000 
      44      0.000      4.900      0.000      0.000 
      45      0.000      0.000      0.000      0.000 
      46      0.000      7.250      0.000      0.000 
      47      0.000      7.250      0.000      0.000 
      48      0.000      0.000      0.000      0.000 
      49      0.000      7.250      0.000      0.000 
      50      0.000      7.250      0.000      0.000 
      51      0.000      0.000      0.000      0.000 
      52      0.000      0.000      0.000      0.000 
      53      0.000      0.000      0.350      0.000 
      54      0.000      0.000      0.000      0.000 
      55      0.000      7.250      0.000      0.000 
      56      0.000      0.000      0.000      0.000 
      57      0.000      0.000      0.350      0.000 
      58      0.000      0.000      0.350      0.000 
      59      0.000      7.250      0.000      0.000 

Improper Coeffs 

       1      0.000      -1       2 
       2      0.000      -1       2 
       3     10.500      -1       2 
       4      2.500      -1       2 
       5      0.000      -1       2 
       6      0.000      -1       2 
       7      2.500      -1       2 
       8      2.500      -1       2 
       9      0.000      -1       2 
      10      0.000      -1       2 
      11      2.500      -1       2 
      12      2.500      -1       2 
      13      2.500      -1       2 
      14      2.500      -1       2 
      15      2.500      -1       2 

Atoms 

     1      1      1 -0.57350000    1.000  1.00000  0.00000
     2      1      2 1.60600000   -0.785  1.00000  0.00000
     3      1      3 -0.51590000   -1.220  1.00000  1.38101
     4      1      4 -0.51590000   -1.274  1.99328 -0.92961
     5      1      5 -1.81600000   -1.153 -0.51820 -0.56591
     6      1      6 1.13220000   -0.785 -0.97313 -1.81920
     7      1      7 -0.42300000   -0.118 -0.31125 -2.59795
     8      1      8 -1.05900000   -1.189 -2.24920 -2.07386
     9      1      9 0.20220000   -0.927 -2.83959 -3.36391
    10      1     10 -0.12100000   -0.792 -4.33360 -3.27009
    11      1     11 -0.13180000   -1.880 -5.17234 -3.54212
    12      1     12 -0.15020000   -1.741 -6.55869 -3.45259
    13      1     13 -0.13370000   -0.515 -7.11553 -3.09134
    14      1     14 -0.15020000    0.572 -6.28753 -2.81933
    15      1     15 -0.12000000    0.437 -4.90604 -2.90746
    16      1     16 0.17370000    1.334  1.95799  0.40260
    17      1     17 0.17370000    1.372  0.88872 -1.01851
    18      1     18 0.17370000    1.349  0.18604  0.63844
    19      1     19 0.73190000   -1.600 -1.11545  0.11727
    20      1     20 0.51260000   -1.867 -2.68676 -1.46980
    21      1     21 0.11920000   -0.013 -2.41665 -3.79744
    22      1     22 0.11920000   -1.751 -2.56152 -4.03056
    23      1     23 0.15060000   -2.843 -4.75269 -3.82634
    24      1     24 0.15330000   -2.588 -7.20454 -3.66599
    25      1     25 0.15230000   -0.408 -8.19515 -3.02344
    26      1     26 0.15350000    1.529 -6.72067 -2.53867
    27      1     27 0.15580000    1.295 -4.27146 -2.69328

Bonds 

     1      1      2      1
     2      2      3      2
     3      3      4      2
     4      4      5      2
     5      5      6      5
     6      6      7      6
     7      7      8      6
     8      8      9      8
     9      9     10      9
    10     10     11     10
    11     11     12     11
    12     12     13     12
    13     13     14     13
    14     14     15     10
    15     15     16      1
    16     16     17      1
    17     17     18      1
    18     18     19      5
    19     19     20      8
    20     20     21      9
    21     21     22      9
    22     22     23     11
    23     23     24     12
    24     24     25     13
    25     25     26     14
    26     26     27     15
    27     27     15     14

Angles 

     1      1      1      2      3
     2      2      1      2      4
     3      3      1      2      5
     4      4      2      5      6
     5      5      5      6      7
     6      6      5      6      8
     7      7      6      8      9
     8      8      8      9     10
     9      9      9     10     11
    10     10     10     11     12
    11     11     11     12     13
    12     12     12     13     14
    13     13      9     10     15
    14     14      2      1     16
    15     15      2      1     17
    16     16      2      1     18
    17     17      2      5     19
    18     18      6      8     20
    19     19      8      9     21
    20     20      8      9     22
    21     21     10     11     23
    22     22     11     12     24
    23     23     12     13     25
    24     24     13     14     26
    25     25     10     15     27
    26     26     11     10     15
    27     27      9      8     20
    28     28     13     14     15
    29     29      6      5     19
    30     30     12     11     23
    31     31     16      1     17
    32     32     16      1     18
    33     33     14     15     27
    34     34     13     12     24
    35     35     10     15     14
    36     36     21      9     22
    37     37      3      2      4
    38     38      7      6      8
    39     39      4      2      5
    40     40     14     13     25
    41     41     15     14     26
    42     42     10      9     22
    43     43      3      2      5
    44     44     17      1     18
    45     45     10      9     21

Dihedrals

     1      1      6      5      2      1 
     2      2      7      6      5      2 
     3      3      9      8      6      5 
     4      4     10      9      8      6 
     5      5     11     10      9      8 
     6      6     12     11     10      9 
     7      7     13     12     11     10 
     8      8     14     13     12     11 
     9      9     16      1      2      3 
    10     10     22      9     10     15 
    11     11     23     11     10      9 
    12     12     26     14     13     12 
    13     13     24     12     13     14 
    14     14     22      9      8      6 
    15     15     25     13     14     15 
    16     16     13     14     15     10 
    17     17      9      8      6      7 
    18     18     15     10      9      8 
    19     19     22      9      8     20 
    20     20     26     14     15     10 
    21     21      6      5      2      4 
    22     22     18      1      2      5 
    23     23      8      6      5      2 
    24     24     20      8      6      7 
    25     25     20      8      9     10 
    26     26     21      9      8     20 
    27     27     21      9     10     11 
    28     28     14     15     10     11 
    29     29     27     15     10      9 
    30     30     26     14     13     25 
    31     31     23     11     10     15 
    32     32     18      1      2      4 
    33     33     17      1      2      5 
    34     34     17      1      2      4 
    35     35     15     10     11     12 
    36     36     19      5      6      7 
    37     37     20      8      6      5 
    38     38     19      5      2      1 
    39     39     24     12     11     23 
    40     40     27     15     14     26 
    41     41     27     15     10     11 
    42     42      6      5      2      3 
    43     43     24     12     11     10 
    44     44     19      5      6      8 
    45     45     22      9     10     11 
    46     46     25     13     12     24 
    47     47     14     15     10      9 
    48     48     19      5      2      4 
    49     49     27     15     14     13 
    50     50     15     14     13     12 
    51     51     21      9     10     15 
    52     52     21      9      8      6 
    53     53     18      1      2      3 
    54     54     19      5      2      3 
    55     55     23     11     12     13 
    56     56     16      1      2      5 
    57     57     16      1      2      4 
    58     58     17      1      2      3 
    59     59     25     13     12     11 

Impropers

     1      1      2      1      3      4 
     2      2      2      1      3      5 
     3      3      6      5      7      8 
     4      4     10      9     11     15 
     5      5      1     17     16      2 
     6      6      1     18     16      2 
     7      7      5      2     19      6 
     8      8      8      9     20      6 
     9      9      9     10     21      8 
    10     10      9     10     22      8 
    11     11     11     10     12     23 
    12     12     12     11     13     24 
    13     13     13     25     12     14 
    14     14     14     26     13     15 
    15     15     15     10     27     14 
