LAMMPS data file Created by LigParGen - (Written by Leela S. Dodda)

      28 atoms
      28 bonds
      48 angles
      64 dihedrals
      16 impropers
 
      28 atom types
      28 bond types
      48 angle types
      64 dihedral types
      16 improper types
 
   -3.999900    46.000100 xlo xhi
   -8.398550    41.601450 ylo yhi
   -3.618070    46.381930 zlo zhi

Masses

       1     12.011  
       2     32.060  
       3     15.999  
       4     15.999  
       5     14.007  
       6     12.011  
       7     15.999  
       8     12.011  
       9     12.011  
      10     12.011  
      11     12.011  
      12     12.011  
      13     12.011  
      14     12.011  
      15     12.011  
      16      1.008  
      17      1.008  
      18      1.008  
      19      1.008  
      20      1.008  
      21      1.008  
      22      1.008  
      23      1.008  
      24      1.008  
      25      1.008  
      26      1.008  
      27      1.008  
      28      1.008  

Pair Coeffs 

       1      0.066  3.5000000 
       2      0.250  3.5500000 
       3      0.170  2.9600000 
       4      0.170  2.9600000 
       5      0.170  3.2500000 
       6      0.070  3.5500000 
       7      0.210  2.9600000 
       8      0.066  3.5000000 
       9      0.066  3.5000000 
      10      0.070  3.5500000 
      11      0.070  3.5500000 
      12      0.070  3.5500000 
      13      0.070  3.5500000 
      14      0.070  3.5500000 
      15      0.070  3.5500000 
      16      0.030  2.5000000 
      17      0.030  2.5000000 
      18      0.030  2.5000000 
      19      0.000  0.0000000 
      20      0.030  2.5000000 
      21      0.030  2.5000000 
      22      0.030  2.5000000 
      23      0.030  2.5000000 
      24      0.030  2.4200000 
      25      0.030  2.4200000 
      26      0.030  2.4200000 
      27      0.030  2.4200000 
      28      0.030  2.4200000 

Bond Coeffs 

       1   340.0000     1.7700 
       2   700.0000     1.4400 
       3   700.0000     1.4400 
       4   434.0000     1.6700 
       5   490.0000     1.3350 
       6   570.0000     1.2290 
       7   317.0000     1.5220 
       8   268.0000     1.5290 
       9   317.0000     1.5100 
      10   469.0000     1.4000 
      11   469.0000     1.4000 
      12   469.0000     1.4000 
      13   469.0000     1.4000 
      14   469.0000     1.4000 
      15   340.0000     1.0900 
      16   340.0000     1.0900 
      17   340.0000     1.0900 
      18   434.0000     1.0100 
      19   340.0000     1.0900 
      20   340.0000     1.0900 
      21   340.0000     1.0900 
      22   340.0000     1.0900 
      23   367.0000     1.0800 
      24   367.0000     1.0800 
      25   367.0000     1.0800 
      26   367.0000     1.0800 
      27   367.0000     1.0800 
      28   469.0000     1.4000 

Angle Coeffs 

       1     74.000    108.900
       2     74.000    108.900
       3    100.000    103.000
       4     70.000    112.000
       5     80.000    122.900
       6     70.000    116.600
       7     63.000    111.100
       8     63.000    114.000
       9     70.000    120.000
      10     63.000    120.000
      11     63.000    120.000
      12     63.000    120.000
      13     70.000    120.000
      14     35.000    109.500
      15     35.000    109.500
      16     35.000    109.500
      17    100.000    111.000
      18     35.000    109.500
      19     35.000    109.500
      20     37.500    110.700
      21     37.500    110.700
      22     35.000    120.000
      23     35.000    120.000
      24     35.000    120.000
      25     35.000    120.000
      26     35.000    120.000
      27     35.000    120.000
      28     63.000    120.000
      29     35.000    120.000
      30     37.500    110.700
      31     63.000    120.000
      32     35.000    119.800
      33     35.000    120.000
      34     33.000    107.800
      35     33.000    107.800
      36     35.000    120.000
      37     33.000    107.800
      38     35.000    109.500
      39     63.000    120.000
      40    104.000    119.000
      41     80.000    120.400
      42    120.000    107.000
      43     35.000    109.500
      44    120.000    107.000
      45     33.000    107.800
      46     35.000    120.000
      47     33.000    107.800
      48     37.500    110.700

Dihedral Coeffs  

       1      2.074     -2.966      2.473      0.000 
       2      0.000      6.089      0.000      0.000 
       3      1.173      0.189     -1.200      0.000 
       4     -1.697     -0.456      0.585      0.000 
       5      0.000      0.000      0.000      0.000 
       6      0.000      7.250      0.000      0.000 
       7      0.000      7.250      0.000      0.000 
       8      0.000      7.250      0.000      0.000 
       9      0.000      0.000      0.350      0.000 
      10      0.000      7.250      0.000      0.000 
      11      0.000      0.000      0.000      0.000 
      12      0.000      0.000     -0.100      0.000 
      13      0.000      7.250      0.000      0.000 
      14      0.000      7.250      0.000      0.000 
      15      0.000      7.250      0.000      0.000 
      16      0.000      0.000      0.000      0.000 
      17      0.000      0.000      0.000      0.000 
      18      0.000      0.000      0.000      0.000 
      19      0.000      0.000      0.300      0.000 
      20      0.000      0.000      0.000      0.000 
      21      0.000      0.000      0.000      0.000 
      22      2.929     -2.533      0.497      0.000 
      23      0.000      0.000      0.000      0.000 
      24      0.000      0.000      0.462      0.000 
      25      0.000      0.000      0.462      0.000 
      26      0.000      0.000      0.300      0.000 
      27      0.000      0.000      0.300      0.000 
      28      0.000      7.250      0.000      0.000 
      29      0.000      7.250      0.000      0.000 
      30      0.000      7.250      0.000      0.000 
      31      0.000      7.250      0.000      0.000 
      32      0.000      0.000      0.000      0.000 
      33      0.000      0.000      0.300      0.000 
      34      0.000      0.000      0.350      0.000 
      35      0.000      0.000      0.000      0.000 
      36      0.000      4.900      0.000      0.000 
      37      0.000      7.250      0.000      0.000 
      38      0.000      7.250      0.000      0.000 
      39      0.000      0.000      0.000      0.000 
      40      1.671     -4.901      0.669      0.000 
      41      0.000      7.250      0.000      0.000 
      42      0.000      7.250      0.000      0.000 
      43      0.000      0.000     -0.100      0.000 
      44      0.000      7.250      0.000      0.000 
      45      0.000      0.000      0.000      0.000 
      46      0.000      7.250      0.000      0.000 
      47      0.000      7.250      0.000      0.000 
      48      0.000      4.900      0.000      0.000 
      49      0.000      0.000      0.000      0.000 
      50      0.000      7.250      0.000      0.000 
      51      0.000      0.000      0.000      0.000 
      52      0.000      7.250      0.000      0.000 
      53      0.000      0.000      0.000      0.000 
      54      0.000      7.250      0.000      0.000 
      55      0.000      7.250      0.000      0.000 
      56      0.000      0.000      0.000      0.000 
      57      0.000      0.000      0.350      0.000 
      58      0.000      0.000      0.350      0.000 
      59      0.000      0.000      0.000      0.000 
      60      0.000      7.250      0.000      0.000 
      61      0.000      7.250      0.000      0.000 
      62      0.000      0.000      0.000      0.000 
      63      0.000      0.000      0.350      0.000 
      64      0.000      0.000      0.350      0.000 

Improper Coeffs 

       1      0.000      -1       2 
       2      0.000      -1       2 
       3     10.500      -1       2 
       4      2.500      -1       2 
       5      0.000      -1       2 
       6      0.000      -1       2 
       7      2.500      -1       2 
       8      0.000      -1       2 
       9      0.000      -1       2 
      10      0.000      -1       2 
      11      0.000      -1       2 
      12      2.500      -1       2 
      13      2.500      -1       2 
      14      2.500      -1       2 
      15      2.500      -1       2 
      16      2.500      -1       2 

Atoms 

     1      1      1 -0.57810000    1.000  1.00000  0.00000
     2      1      2 1.60150000   -0.784  1.00000  0.00000
     3      1      3 -0.52160000   -1.277  1.00000  1.35513
     4      1      4 -0.52160000   -1.223  1.99865 -0.95285
     5      1      5 -1.83760000   -1.146 -0.45696 -0.71040
     6      1      6 0.84350000   -0.807 -1.69648 -0.15552
     7      1      7 -0.37150000   -0.122 -1.79405  0.85359
     8      1      8 -0.18940000   -1.300 -2.88855 -0.93676
     9      1      9 -0.12600000   -0.821 -4.18295 -0.28219
    10      1     10 -0.09360000   -1.301 -5.38685 -1.04691
    11      1     11 -0.14260000   -0.521 -5.92828 -2.07651
    12      1     12 -0.14520000   -0.992 -7.00985 -2.81966
    13      1     13 -0.14460000   -2.244 -7.55498 -2.53807
    14      1     14 -0.14430000   -3.023 -7.01930 -1.51446
    15      1     15 -0.14070000   -2.557 -5.94219 -0.77173
    16      1     16 0.17290000    1.337  1.94317  0.43450
    17      1     17 0.17290000    1.351  0.91782 -1.03085
    18      1     18 0.17290000    1.371  0.17312  0.60597
    19      1     19 0.73940000   -1.642 -0.37260 -1.59237
    20      1     20 0.13180000   -0.917 -2.81044 -1.96174
    21      1     21 0.13180000   -2.394 -2.85273 -0.98004
    22      1     22 0.11920000   -1.176 -4.24044  0.75544
    23      1     23 0.11920000    0.275 -4.19895 -0.22341
    24      1     24 0.14860000    0.457 -5.50954 -2.30515
    25      1     25 0.15080000   -0.383 -7.42495 -3.61807
    26      1     26 0.15020000   -2.611 -8.39855 -3.11639
    27      1     27 0.15090000   -4.000 -7.44333 -1.29593
    28      1     28 0.15110000   -3.176 -5.53378  0.02409

Bonds 

     1      1      2      1
     2      2      3      2
     3      3      4      2
     4      4      5      2
     5      5      6      5
     6      6      7      6
     7      7      8      6
     8      8      9      8
     9      9     10      9
    10     10     11     10
    11     11     12     11
    12     12     13     12
    13     13     14     13
    14     14     15     10
    15     15     16      1
    16     16     17      1
    17     17     18      1
    18     18     19      5
    19     19     20      8
    20     20     21      8
    21     21     22      9
    22     22     23      9
    23     23     24     11
    24     24     25     12
    25     25     26     13
    26     26     27     14
    27     27     28     15
    28     28     15     14

Angles 

     1      1      1      2      3
     2      2      1      2      4
     3      3      1      2      5
     4      4      2      5      6
     5      5      5      6      7
     6      6      5      6      8
     7      7      6      8      9
     8      8      8      9     10
     9      9      9     10     11
    10     10     10     11     12
    11     11     11     12     13
    12     12     12     13     14
    13     13      9     10     15
    14     14      2      1     16
    15     15      2      1     17
    16     16      2      1     18
    17     17      2      5     19
    18     18      6      8     20
    19     19      6      8     21
    20     20      8      9     22
    21     21      8      9     23
    22     22     10     11     24
    23     23     11     12     25
    24     24     12     13     26
    25     25     13     14     27
    26     26     10     15     28
    27     27     12     11     24
    28     28     11     10     15
    29     29     14     15     28
    30     30      9      8     20
    31     31     13     14     15
    32     32      6      5     19
    33     33     14     13     26
    34     34     16      1     17
    35     35     16      1     18
    36     36     15     14     27
    37     37     22      9     23
    38     38     10      9     23
    39     39     10     15     14
    40     40      3      2      4
    41     41      7      6      8
    42     42      4      2      5
    43     43     10      9     22
    44     44      3      2      5
    45     45     17      1     18
    46     46     13     12     25
    47     47     20      8     21
    48     48      9      8     21

Dihedrals

     1      1      6      5      2      1 
     2      2      7      6      5      2 
     3      3      9      8      6      5 
     4      4     10      9      8      6 
     5      5     11     10      9      8 
     6      6     12     11     10      9 
     7      7     13     12     11     10 
     8      8     14     13     12     11 
     9      9     16      1      2      3 
    10     10     24     11     10     15 
    11     11     22      9     10     15 
    12     12     22      9      8      6 
    13     13     28     15     10      9 
    14     14     28     15     10     11 
    15     15     13     14     15     10 
    16     16      9      8      6      7 
    17     17     23      9     10     11 
    18     18     15     10      9      8 
    19     19     22      9      8     20 
    20     20      6      5      2      4 
    21     21     18      1      2      5 
    22     22      8      6      5      2 
    23     23     21      8      6      5 
    24     24     20      8      9     10 
    25     25     21      8      9     10 
    26     26     22      9      8     21 
    27     27     23      9      8     20 
    28     28     14     15     10     11 
    29     29     27     14     15     10 
    30     30     27     14     13     26 
    31     31     24     11     12     13 
    32     32     20      8      6      7 
    33     33     23      9      8     21 
    34     34     18      1      2      4 
    35     35     17      1      2      5 
    36     36     19      5      6      7 
    37     37     28     15     14     13 
    38     38     15     10     11     12 
    39     39     20      8      6      5 
    40     40     19      5      2      1 
    41     41     28     15     14     27 
    42     42     24     11     10      9 
    43     43     23      9      8      6 
    44     44     25     12     13     14 
    45     45      6      5      2      3 
    46     46     27     14     13     12 
    47     47     25     12     11     10 
    48     48     19      5      6      8 
    49     49     22      9     10     11 
    50     50     25     12     11     24 
    51     51     23      9     10     15 
    52     52     14     15     10      9 
    53     53     19      5      2      4 
    54     54     15     14     13     12 
    55     55     26     13     12     25 
    56     56     21      8      6      7 
    57     57     17      1      2      4 
    58     58     18      1      2      3 
    59     59     19      5      2      3 
    60     60     26     13     14     15 
    61     61     26     13     12     11 
    62     62     16      1      2      5 
    63     63     16      1      2      4 
    64     64     17      1      2      3 

Impropers

     1      1      2      1      3      4 
     2      2      2      1      3      5 
     3      3      6      5      7      8 
     4      4     10      9     11     15 
     5      5      1     17     16      2 
     6      6      1     18     16      2 
     7      7      5      2     19      6 
     8      8      8      9     20      6 
     9      9      8      9     21      6 
    10     10      9     10     22      8 
    11     11      9     10     23      8 
    12     12     11     10     12     24 
    13     13     12     25     11     13 
    14     14     13     26     12     14 
    15     15     14     27     13     15 
    16     16     15     10     28     14 
