LAMMPS data file Created by LigParGen - (Written by Leela S. Dodda)

      31 atoms
      32 bonds
      53 angles
      69 dihedrals
      17 impropers
 
      31 atom types
      32 bond types
      53 angle types
      69 dihedral types
      17 improper types
 
   -2.911190    47.088810 xlo xhi
   -2.232820    47.767180 ylo yhi
   -1.136600    48.863400 zlo zhi

Masses

       1     15.999  
       2     32.060  
       3     14.007  
       4     12.011  
       5     14.007  
       6     14.007  
       7     12.011  
       8     14.007  
       9     12.011  
      10     12.011  
      11     12.011  
      12     12.011  
      13     12.011  
      14     12.011  
      15     14.007  
      16     12.011  
      17     12.011  
      18     15.999  
      19      1.008  
      20      1.008  
      21      1.008  
      22      1.008  
      23      1.008  
      24      1.008  
      25      1.008  
      26      1.008  
      27      1.008  
      28      1.008  
      29      1.008  
      30      1.008  
      31      1.008  

Pair Coeffs 

       1      0.170  2.9600000 
       2      0.250  3.5500000 
       3      0.170  3.2500000 
       4      0.070  3.5500000 
       5      0.170  3.2500000 
       6      0.170  3.2500000 
       7      0.070  3.5500000 
       8      0.170  3.2500000 
       9      0.070  3.5500000 
      10      0.070  3.5500000 
      11      0.070  3.5500000 
      12      0.070  3.5500000 
      13      0.070  3.5500000 
      14      0.070  3.5500000 
      15      0.170  3.2500000 
      16      0.066  3.5000000 
      17      0.066  3.5000000 
      18      0.170  2.9600000 
      19      0.000  0.0000000 
      20      0.030  2.4200000 
      21      0.030  2.4200000 
      22      0.030  2.4200000 
      23      0.030  2.4200000 
      24      0.030  2.4200000 
      25      0.030  2.4200000 
      26      0.030  2.5000000 
      27      0.030  2.5000000 
      28      0.030  2.5000000 
      29      0.030  2.5000000 
      30      0.030  2.5000000 
      31      0.030  2.5000000 

Bond Coeffs 

       1   700.0000     1.4400 
       2   434.0000     1.6700 
       3   427.0000     1.3810 
       4   410.0000     1.3940 
       5   400.0000     1.2800 
       6   520.0000     1.3700 
       7   400.0000     1.3490 
       8   385.0000     1.4400 
       9   469.0000     1.4000 
      10   469.0000     1.4000 
      11   469.0000     1.4000 
      12   469.0000     1.4000 
      13   469.0000     1.4000 
      14   434.0000     1.6700 
      15   337.0000     1.4490 
      16   337.0000     1.4490 
      17   700.0000     1.4400 
      18   434.0000     1.0100 
      19   367.0000     1.0800 
      20   367.0000     1.0800 
      21   367.0000     1.0800 
      22   367.0000     1.0800 
      23   367.0000     1.0800 
      24   367.0000     1.0800 
      25   340.0000     1.0900 
      26   340.0000     1.0900 
      27   340.0000     1.0900 
      28   340.0000     1.0900 
      29   340.0000     1.0900 
      30   340.0000     1.0900 
      31   427.0000     1.3810 
      32   469.0000     1.4000 

Angle Coeffs 

       1    120.000    107.000
       2     48.370    118.330
       3     56.880    120.670
       4     70.000    117.000
       5     70.000    120.000
       6     59.410    111.360
       7     63.000    112.400
       8     70.000    108.700
       9     63.000    120.000
      10     63.000    120.000
      11     63.000    120.000
      12     70.000    108.700
      13    120.000    107.000
      14     50.000    120.000
      15     50.000    120.000
      16    104.000    119.000
      17    100.000    111.000
      18     35.000    130.700
      19     35.000    120.000
      20     35.000    120.000
      21     35.000    120.000
      22     35.000    120.000
      23     35.000    120.000
      24     35.000    109.500
      25     35.000    109.500
      26     35.000    109.500
      27     35.000    109.500
      28     35.000    109.500
      29     35.000    109.500
      30     63.000    120.000
      31     78.670    104.360
      32    120.000    107.000
      33     70.000    111.000
      34     33.000    107.800
      35     33.000    107.800
      36     35.000    120.000
      37     35.000    120.000
      38     35.000    119.800
      39     35.000    120.000
      40     35.000    120.000
      41     33.000    107.800
      42     33.000    107.800
      43     63.000    120.000
      44     70.000    106.300
      45     63.000    120.000
      46     33.000    107.800
      47     50.000    118.000
      48     56.000    113.100
      49     35.000    120.000
      50    120.000    107.000
      51     70.000    125.200
      52     35.000    121.600
      53     33.000    107.800

Dihedral Coeffs  

       1      0.000      0.000      0.000      0.000 
       2      1.362     -1.457      0.149      0.000 
       3      0.000      4.800      0.000      0.000 
       4      0.000     10.000      0.000      0.000 
       5      0.000      2.170      0.000      0.000 
       6      0.000      7.250      0.000      0.000 
       7      0.000      7.250      0.000      0.000 
       8      0.000      7.250      0.000      0.000 
       9      0.000      0.000      0.000      0.000 
      10      1.362     -1.457      0.149      0.000 
      11      1.362     -1.457      0.149      0.000 
      12      2.074     -2.966      2.473      0.000 
      13      1.671     -4.901      0.669      0.000 
      14      0.000      0.000      0.000      0.000 
      15      0.000      0.000      0.000      0.000 
      16      0.000      7.250      0.000      0.000 
      17      0.000      7.250      0.000      0.000 
      18      0.000      0.000      0.000      0.000 
      19      1.362     -1.457      0.149      0.000 
      20      0.000      0.000      0.000      0.000 
      21      0.000      7.250      0.000      0.000 
      22      0.000      7.250      0.000      0.000 
      23      0.000      7.250      0.000      0.000 
      24      0.000      0.000      0.000      0.000 
      25      0.000      5.000      0.000      0.000 
      26      0.000      0.000      0.000      0.000 
      27      0.000      7.250      0.000      0.000 
      28      0.000      7.250      0.000      0.000 
      29      2.074     -2.966      2.473      0.000 
      30      0.000      2.170      0.000      0.000 
      31      0.000      7.250      0.000      0.000 
      32      0.000      0.000      0.000      0.000 
      33      2.074     -2.966      2.473      0.000 
      34      0.000      7.250      0.000      0.000 
      35      0.000      7.250      0.000      0.000 
      36      0.000      0.000      0.000      0.000 
      37      0.000      2.170      0.000      0.000 
      38      0.000      2.100      0.000      0.000 
      39      0.000      7.250      0.000      0.000 
      40      0.000      7.250      0.000      0.000 
      41      0.000      0.000      0.000      0.000 
      42      0.000      5.000      0.000      0.000 
      43      0.000      7.250      0.000      0.000 
      44      0.000      7.250      0.000      0.000 
      45      0.000      5.000      0.000      0.000 
      46      0.000      2.170      0.000      0.000 
      47      1.362     -1.457      0.149      0.000 
      48      0.000      7.250      0.000      0.000 
      49      0.000      0.000      0.000      0.000 
      50      0.000      7.250      0.000      0.000 
      51      0.000      7.250      0.000      0.000 
      52      0.000      7.250      0.000      0.000 
      53      0.000      7.250      0.000      0.000 
      54      0.000     10.750      0.000      0.000 
      55      0.000      2.170      0.000      0.000 
      56      0.000      0.000      0.000      0.000 
      57      2.929     -2.533      0.497      0.000 
      58      0.000      7.250      0.000      0.000 
      59      0.000      7.250      0.000      0.000 
      60      1.362     -1.457      0.149      0.000 
      61      1.362     -1.457      0.149      0.000 
      62      0.000      7.250      0.000      0.000 
      63      0.000      5.000      0.000      0.000 
      64      0.000      0.000      0.000      0.000 
      65      0.000      7.250      0.000      0.000 
      66      0.000      7.250      0.000      0.000 
      67      0.000      0.000      0.000      0.000 
      68      0.000      7.250      0.000      0.000 
      69      0.000      7.250      0.000      0.000 

Improper Coeffs 

       1      2.500      -1       2 
       2      0.000      -1       2 
       3      2.500      -1       2 
       4      0.000      -1       2 
       5      2.500      -1       2 
       6      0.000      -1       2 
       7      2.500      -1       2 
       8      2.500      -1       2 
       9      2.500      -1       2 
      10      2.500      -1       2 
      11      2.500      -1       2 
      12      2.500      -1       2 
      13      2.500      -1       2 
      14      0.000      -1       2 
      15      0.000      -1       2 
      16      0.000      -1       2 
      17      0.000      -1       2 

Atoms 

     1      1      1 -0.51490000    1.000  1.00000  0.00000
     2      1      2 1.75810000   -0.444  1.00000  0.00000
     3      1      3 -1.39110000   -1.023  1.00000  1.58999
     4      1      4 0.28450000   -0.214  0.36635  2.53224
     5      1      5 -0.23560000   -0.407 -0.92372  2.91855
     6      1      6 0.08590000    0.519 -1.22423  3.81923
     7      1      7 -0.06510000    0.807  0.91531  3.26528
     8      1      8 -0.16480000    1.267 -0.11439  4.05094
     9      1      9 0.09020000    2.339 -0.10999  4.98054
    10      1     10 -0.15520000    3.045  1.06938  5.25687
    11      1     11 -0.13040000    4.099  1.05438  6.17440
    12      1     12 -0.14120000    4.453 -0.13053  6.81768
    13      1     13 -0.13150000    3.753 -1.30471  6.54600
    14      1     14 -0.12340000    2.698 -1.30098  5.63084
    15      1     15 -1.40300000   -0.967  2.52210 -0.50567
    16      1     16 0.20910000   -2.416  2.74892 -0.58276
    17      1     17 0.21080000   -0.209  3.67634 -0.00150
    18      1     18 -0.51490000   -1.217  0.00358 -0.70262
    19      1     19 0.62700000   -1.910  0.49919  1.51606
    20      1     20 0.22590000    1.218  1.91014  3.28370
    21      1     21 0.15840000    2.804  2.01421  4.78004
    22      1     22 0.16140000    4.646  1.97000  6.38621
    23      1     23 0.15890000    5.274 -0.13754  7.52982
    24      1     24 0.16420000    4.031 -2.22903  7.04773
    25      1     25 0.18870000    2.171 -2.23282  5.43753
    26      1     26 0.10820000   -2.911  1.94642 -1.13660
    27      1     27 0.10820000   -2.621  3.67976 -1.12395
    28      1     28 0.10820000   -2.854  2.82855  0.41672
    29      1     29 0.10780000    0.863  3.54593 -0.17903
    30      1     30 0.10780000   -0.387  3.82788  1.06633
    31      1     31 0.10780000   -0.505  4.58253 -0.54051

Bonds 

     1      1      2      1
     2      2      3      2
     3      3      4      3
     4      4      5      4
     5      5      6      5
     6      6      7      4
     7      7      8      6
     8      8      9      8
     9      9     10      9
    10     10     11     10
    11     11     12     11
    12     12     13     12
    13     13     14      9
    14     14     15      2
    15     15     16     15
    16     16     17     15
    17     17     18      2
    18     18     19      3
    19     19     20      7
    20     20     21     10
    21     21     22     11
    22     22     23     12
    23     23     24     13
    24     24     25     14
    25     25     26     16
    26     26     27     16
    27     27     28     16
    28     28     29     17
    29     29     30     17
    30     30     31     17
    31     31      8      7
    32     32     14     13

Angles 

     1      1      1      2      3
     2      2      2      3      4
     3      3      3      4      5
     4      4      4      5      6
     5      5      3      4      7
     6      6      5      6      8
     7      7      6      8      9
     8      8      8      9     10
     9      9      9     10     11
    10     10     10     11     12
    11     11     11     12     13
    12     12      8      9     14
    13     13      1      2     15
    14     14      2     15     16
    15     15      2     15     17
    16     16      1      2     18
    17     17      2      3     19
    18     18      4      7     20
    19     19      9     10     21
    20     20     10     11     22
    21     21     11     12     23
    22     22     12     13     24
    23     23      9     14     25
    24     24     15     16     26
    25     25     15     16     27
    26     26     15     16     28
    27     27     15     17     29
    28     28     15     17     30
    29     29     15     17     31
    30     30     10      9     14
    31     31      3      2     15
    32     32      3      2     18
    33     33      5      4      7
    34     34     29     17     31
    35     35     30     17     31
    36     36     13     12     23
    37     37     14     13     24
    38     38      4      3     19
    39     39     11     10     21
    40     40     12     11     22
    41     41     27     16     28
    42     42     26     16     28
    43     43     12     13     14
    44     44      4      7      8
    45     45      9     14     13
    46     46     26     16     27
    47     47     16     15     17
    48     48      6      8      7
    49     49     13     14     25
    50     50     15      2     18
    51     51      7      8      9
    52     52      8      7     20
    53     53     29     17     30

Dihedrals

     1      1      4      3      2      1 
     2      2      5      4      3      2 
     3      3      6      5      4      3 
     4      4      8      6      5      4 
     5      5     10      9      8      6 
     6      6     11     10      9      8 
     7      7     12     11     10      9 
     8      8     13     12     11     10 
     9      9     16     15      2      1 
    10     10     26     16     15      2 
    11     11     29     17     15      2 
    12     12     15      2      3      4 
    13     13     19      3      2     15 
    14     14     19      3      2      1 
    15     15     28     16     15     17 
    16     16     22     11     10      9 
    17     17     20      7      4      5 
    18     18     19      3      2     18 
    19     19     27     16     15      2 
    20     20     31     17     15     16 
    21     21      9      8      6      5 
    22     22     12     13     14      9 
    23     23     24     13     12     23 
    24     24     18      2     15     16 
    25     25     20      7      8      9 
    26     26     29     17     15     16 
    27     27     24     13     12     11 
    28     28     25     14     13     24 
    29     29     17     15      2      3 
    30     30     10      9      8      7 
    31     31     23     12     11     22 
    32     32     26     16     15     17 
    33     33     16     15      2      3 
    34     34     20      7      4      3 
    35     35     23     12     13     14 
    36     36     19      3      4      7 
    37     37     14      9      8      6 
    38     38     19      3      4      5 
    39     39     21     10      9     14 
    40     40     22     11     10     21 
    41     41     18      2      3      4 
    42     42      9      8      7      4 
    43     43     21     10     11     12 
    44     44     24     13     14      9 
    45     45     20      7      8      6 
    46     46     14      9      8      7 
    47     47     31     17     15      2 
    48     48     22     11     12     13 
    49     49     17     15      2      1 
    50     50      7      8      6      5 
    51     51     13     14      9     10 
    52     52     21     10      9      8 
    53     53     13     14      9      8 
    54     54      8      7      4      3 
    55     55      8      7      4      5 
    56     56     30     17     15     16 
    57     57      7      4      3      2 
    58     58     25     14      9     10 
    59     59     14      9     10     11 
    60     60     30     17     15      2 
    61     61     28     16     15      2 
    62     62     23     12     11     10 
    63     63      6      8      7      4 
    64     64     27     16     15     17 
    65     65     14     13     12     11 
    66     66      7      4      5      6 
    67     67     18      2     15     17 
    68     68     25     14      9      8 
    69     69     25     14     13     12 

Impropers

     1      1      4      3      5      7 
     2      2      8      9      6      7 
     3      3      9     10     14      8 
     4      4      2      1      3     15 
     5      5     15     17      2     16 
     6      6      2      1     18      3 
     7      7      3      2     19      4 
     8      8      7      4     20      8 
     9      9     10      9     11     21 
    10     10     11     10     12     22 
    11     11     12     11     13     23 
    12     12     13     12     14     24 
    13     13     14     25      9     13 
    14     14     16     26     27     15 
    15     15     16     26     28     15 
    16     16     17     29     30     15 
    17     17     17     29     15     31 
