LAMMPS data file Created by LigParGen - (Written by Leela S. Dodda)

      33 atoms
      35 bonds
      56 angles
      81 dihedrals
      18 impropers
 
      33 atom types
      35 bond types
      56 angle types
      81 dihedral types
      18 improper types
 
   -3.711020    46.288980 xlo xhi
   -0.037040    49.962960 ylo yhi
   -2.158290    47.841710 zlo zhi

Masses

       1     15.999  
       2     32.060  
       3     14.007  
       4     12.011  
       5     14.007  
       6     14.007  
       7     12.011  
       8     14.007  
       9     12.011  
      10     12.011  
      11     12.011  
      12     12.011  
      13     12.011  
      14     12.011  
      15     12.011  
      16     12.011  
      17     12.011  
      18     12.011  
      19     12.011  
      20     12.011  
      21     15.999  
      22      1.008  
      23      1.008  
      24      1.008  
      25      1.008  
      26      1.008  
      27      1.008  
      28      1.008  
      29      1.008  
      30      1.008  
      31      1.008  
      32      1.008  
      33      1.008  

Pair Coeffs 

       1      0.170  2.9600000 
       2      0.250  3.5500000 
       3      0.170  3.2500000 
       4      0.070  3.5500000 
       5      0.170  3.2500000 
       6      0.170  3.2500000 
       7      0.070  3.5500000 
       8      0.170  3.2500000 
       9      0.070  3.5500000 
      10      0.070  3.5500000 
      11      0.070  3.5500000 
      12      0.070  3.5500000 
      13      0.070  3.5500000 
      14      0.070  3.5500000 
      15      0.070  3.5500000 
      16      0.070  3.5500000 
      17      0.070  3.5500000 
      18      0.070  3.5500000 
      19      0.070  3.5500000 
      20      0.070  3.5500000 
      21      0.170  2.9600000 
      22      0.000  0.0000000 
      23      0.030  2.4200000 
      24      0.030  2.4200000 
      25      0.030  2.4200000 
      26      0.030  2.4200000 
      27      0.030  2.4200000 
      28      0.030  2.4200000 
      29      0.030  2.4200000 
      30      0.030  2.4200000 
      31      0.030  2.4200000 
      32      0.030  2.4200000 
      33      0.030  2.4200000 

Bond Coeffs 

       1   700.0000     1.4400 
       2   434.0000     1.6700 
       3   427.0000     1.3810 
       4   410.0000     1.3940 
       5   400.0000     1.2800 
       6   520.0000     1.3700 
       7   400.0000     1.3490 
       8   385.0000     1.4400 
       9   469.0000     1.4000 
      10   469.0000     1.4000 
      11   469.0000     1.4000 
      12   469.0000     1.4000 
      13   469.0000     1.4000 
      14   340.0000     1.7700 
      15   469.0000     1.4000 
      16   469.0000     1.4000 
      17   469.0000     1.4000 
      18   469.0000     1.4000 
      19   469.0000     1.4000 
      20   700.0000     1.4400 
      21   434.0000     1.0100 
      22   367.0000     1.0800 
      23   367.0000     1.0800 
      24   367.0000     1.0800 
      25   367.0000     1.0800 
      26   367.0000     1.0800 
      27   367.0000     1.0800 
      28   367.0000     1.0800 
      29   367.0000     1.0800 
      30   367.0000     1.0800 
      31   367.0000     1.0800 
      32   367.0000     1.0800 
      33   427.0000     1.3810 
      34   469.0000     1.4000 
      35   469.0000     1.4000 

Angle Coeffs 

       1    120.000    107.000
       2     48.370    118.330
       3     56.880    120.670
       4     70.000    117.000
       5     70.000    120.000
       6     59.410    111.360
       7     63.000    112.400
       8     70.000    108.700
       9     63.000    120.000
      10     63.000    120.000
      11     63.000    120.000
      12     70.000    108.700
      13     74.000    107.200
      14     85.000    119.400
      15     63.000    120.000
      16     63.000    120.000
      17     63.000    120.000
      18     85.000    119.400
      19    104.000    119.000
      20    100.000    111.000
      21     35.000    130.700
      22     35.000    120.000
      23     35.000    120.000
      24     35.000    120.000
      25     35.000    120.000
      26     35.000    120.000
      27     35.000    120.000
      28     35.000    120.000
      29     35.000    120.000
      30     35.000    120.000
      31     35.000    120.000
      32     63.000    120.000
      33     35.000    120.000
      34     35.000    120.000
      35     63.000    120.000
      36    100.000    103.000
      37     35.000    120.000
      38     35.000    120.000
      39     70.000    111.000
      40     35.000    119.800
      41     35.000    120.000
      42     35.000    121.600
      43     35.000    120.000
      44     63.000    120.000
      45     70.000    106.300
      46     63.000    120.000
      47     35.000    120.000
      48     35.000    120.000
      49     74.000    107.200
      50     63.000    120.000
      51     56.000    113.100
      52    120.000    107.000
      53     70.000    125.200
      54     35.000    120.000
      55     63.000    120.000
      56     35.000    120.000

Dihedral Coeffs  

       1      0.000      0.000      0.000      0.000 
       2      1.362     -1.457      0.149      0.000 
       3      0.000      4.800      0.000      0.000 
       4      0.000     10.000      0.000      0.000 
       5      0.000      2.170      0.000      0.000 
       6      0.000      7.250      0.000      0.000 
       7      0.000      7.250      0.000      0.000 
       8      0.000      7.250      0.000      0.000 
       9      0.000      0.000      0.000      0.000 
      10      0.000      7.250      0.000      0.000 
      11      0.000      7.250      0.000      0.000 
      12      0.000      7.250      0.000      0.000 
      13      0.000      7.250      0.000      0.000 
      14      0.000      7.250      0.000      0.000 
      15      0.000      7.250      0.000      0.000 
      16      0.000      0.000      0.000      0.000 
      17      1.656     -0.768     -0.117      0.000 
      18      2.074     -2.966      2.473      0.000 
      19      0.000      7.250      0.000      0.000 
      20      0.000      7.250      0.000      0.000 
      21      0.000      7.250      0.000      0.000 
      22      0.000      7.250      0.000      0.000 
      23      0.000      7.250      0.000      0.000 
      24      0.000      7.250      0.000      0.000 
      25      0.000      7.250      0.000      0.000 
      26      0.000      7.250      0.000      0.000 
      27      0.000      7.250      0.000      0.000 
      28      0.000      5.000      0.000      0.000 
      29      0.000      7.250      0.000      0.000 
      30      0.000      7.250      0.000      0.000 
      31      0.000      7.250      0.000      0.000 
      32      0.000      0.000      0.000      0.000 
      33      0.000      5.000      0.000      0.000 
      34      0.000      7.250      0.000      0.000 
      35      0.000      7.250      0.000      0.000 
      36      0.000      7.250      0.000      0.000 
      37      0.000      7.250      0.000      0.000 
      38      0.000      0.000      0.000      0.000 
      39      0.000      0.000      0.000      0.000 
      40      0.000      7.250      0.000      0.000 
      41      1.671     -4.901      0.669      0.000 
      42      0.000      7.250      0.000      0.000 
      43      0.000      2.170      0.000      0.000 
      44      1.656     -0.768     -0.117      0.000 
      45      0.000      7.250      0.000      0.000 
      46      0.000      7.250      0.000      0.000 
      47      0.000      7.250      0.000      0.000 
      48      0.000      7.250      0.000      0.000 
      49      0.000      2.170      0.000      0.000 
      50      0.000      7.250      0.000      0.000 
      51      0.000      7.250      0.000      0.000 
      52      0.000      7.250      0.000      0.000 
      53      0.000      5.000      0.000      0.000 
      54      0.000      7.250      0.000      0.000 
      55      0.000      7.250      0.000      0.000 
      56      0.000      2.170      0.000      0.000 
      57      0.000      7.250      0.000      0.000 
      58      0.000      2.100      0.000      0.000 
      59      0.000      7.250      0.000      0.000 
      60      0.000      7.250      0.000      0.000 
      61      0.000      7.250      0.000      0.000 
      62      0.000      7.250      0.000      0.000 
      63      0.000     10.750      0.000      0.000 
      64      0.000      2.170      0.000      0.000 
      65      2.929     -2.533      0.497      0.000 
      66      0.000      7.250      0.000      0.000 
      67      0.000      7.250      0.000      0.000 
      68      0.000      7.250      0.000      0.000 
      69      0.000      0.000      0.000      0.000 
      70      0.000      0.000      0.000      0.000 
      71      0.000      7.250      0.000      0.000 
      72      0.000      5.000      0.000      0.000 
      73      0.000      7.250      0.000      0.000 
      74      0.000      7.250      0.000      0.000 
      75      0.000      7.250      0.000      0.000 
      76      0.000      7.250      0.000      0.000 
      77      0.000      0.000      0.000      0.000 
      78      0.000      7.250      0.000      0.000 
      79      0.000      7.250      0.000      0.000 
      80      0.000      7.250      0.000      0.000 
      81      0.000      7.250      0.000      0.000 

Improper Coeffs 

       1      2.500      -1       2 
       2      0.000      -1       2 
       3      2.500      -1       2 
       4      0.000      -1       2 
       5      2.500      -1       2 
       6      0.000      -1       2 
       7      2.500      -1       2 
       8      2.500      -1       2 
       9      2.500      -1       2 
      10      2.500      -1       2 
      11      2.500      -1       2 
      12      2.500      -1       2 
      13      2.500      -1       2 
      14      2.500      -1       2 
      15      2.500      -1       2 
      16      2.500      -1       2 
      17      2.500      -1       2 
      18      2.500      -1       2 

Atoms 

     1      1      1 -0.52390000    1.000  1.00000  0.00000
     2      1      2 1.55290000   -0.447  1.00000  0.00000
     3      1      3 -1.35490000   -0.996  1.00000  1.60205
     4      1      4 0.28880000   -0.586  2.01895  2.44837
     5      1      5 -0.23020000   -1.359  3.10234  2.72535
     6      1      6 0.07020000   -0.709  3.85525  3.60360
     7      1      7 -0.06060000    0.550  2.06007  3.21292
     8      1      8 -0.17220000    0.421  3.19946  3.97193
     9      1      9 0.08960000    1.245  3.66255  5.02965
    10      1     10 -0.15420000    2.320  2.88877  5.49051
    11      1     11 -0.12980000    3.089  3.33439  6.56983
    12      1     12 -0.14050000    2.792  4.54546  7.19133
    13      1     13 -0.13210000    1.724  5.31639  6.73540
    14      1     14 -0.12520000    0.951  4.88118  5.65926
    15      1     15 -0.50930000   -1.010  2.56455 -0.63539
    16      1     16 -0.02250000   -0.150  3.66605 -0.62889
    17      1     17 -0.16540000   -0.578  4.87547 -1.17874
    18      1     18 -0.08050000   -1.856  4.97867 -1.72974
    19      1     19 -0.16520000   -2.710  3.87580 -1.73317
    20      1     20 -0.02810000   -2.284  2.65767 -1.20721
    21      1     21 -0.52390000   -1.197 -0.03704 -0.68166
    22      1     22 0.63210000   -2.007  0.85360  1.58627
    23      1     23 0.23610000    1.373  1.37015  3.30840
    24      1     24 0.16220000    2.587  1.93905  5.03790
    25      1     25 0.16300000    3.922  2.73290  6.92710
    26      1     26 0.15960000    3.391  4.88729  8.03105
    27      1     27 0.16390000    1.491  6.26032  7.22094
    28      1     28 0.18710000    0.122  5.50453  5.32570
    29      1     29 0.17190000    0.848  3.59120 -0.20204
    30      1     30 0.15770000    0.086  5.73703 -1.17873
    31      1     31 0.15380000   -2.185  5.92321 -2.15829
    32      1     32 0.15760000   -3.711  3.96801 -2.14880
    33      1     33 0.17170000   -2.944  1.79446 -1.24821

Bonds 

     1      1      2      1
     2      2      3      2
     3      3      4      3
     4      4      5      4
     5      5      6      5
     6      6      7      4
     7      7      8      6
     8      8      9      8
     9      9     10      9
    10     10     11     10
    11     11     12     11
    12     12     13     12
    13     13     14      9
    14     14     15      2
    15     15     16     15
    16     16     17     16
    17     17     18     17
    18     18     19     18
    19     19     20     15
    20     20     21      2
    21     21     22      3
    22     22     23      7
    23     23     24     10
    24     24     25     11
    25     25     26     12
    26     26     27     13
    27     27     28     14
    28     28     29     16
    29     29     30     17
    30     30     31     18
    31     31     32     19
    32     32     33     20
    33     33      8      7
    34     34     14     13
    35     35     20     19

Angles 

     1      1      1      2      3
     2      2      2      3      4
     3      3      3      4      5
     4      4      4      5      6
     5      5      3      4      7
     6      6      5      6      8
     7      7      6      8      9
     8      8      8      9     10
     9      9      9     10     11
    10     10     10     11     12
    11     11     11     12     13
    12     12      8      9     14
    13     13      1      2     15
    14     14      2     15     16
    15     15     15     16     17
    16     16     16     17     18
    17     17     17     18     19
    18     18      2     15     20
    19     19      1      2     21
    20     20      2      3     22
    21     21      4      7     23
    22     22      9     10     24
    23     23     10     11     25
    24     24     11     12     26
    25     25     12     13     27
    26     26      9     14     28
    27     27     15     16     29
    28     28     16     17     30
    29     29     17     18     31
    30     30     18     19     32
    31     31     15     20     33
    32     32     16     15     20
    33     33     18     17     30
    34     34     14     13     27
    35     35     10      9     14
    36     36      3      2     15
    37     37     12     11     25
    38     38     17     16     29
    39     39      5      4      7
    40     40      4      3     22
    41     41     20     19     32
    42     42      8      7     23
    43     43     19     20     33
    44     44     12     13     14
    45     45      4      7      8
    46     46      9     14     13
    47     47     13     14     28
    48     48     19     18     31
    49     49     15      2     21
    50     50     15     20     19
    51     51      6      8      7
    52     52      3      2     21
    53     53      7      8      9
    54     54     13     12     26
    55     55     18     19     20
    56     56     11     10     24

Dihedrals

     1      1      4      3      2      1 
     2      2      5      4      3      2 
     3      3      6      5      4      3 
     4      4      8      6      5      4 
     5      5     10      9      8      6 
     6      6     11     10      9      8 
     7      7     12     11     10      9 
     8      8     13     12     11     10 
     9      9     16     15      2      1 
    10     10     17     16     15      2 
    11     11     18     17     16     15 
    12     12     19     18     17     16 
    13     13     28     14      9      8 
    14     14     25     11     10      9 
    15     15     19     20     15     16 
    16     16     21      2      3      4 
    17     17     20     15      2      3 
    18     18     15      2      3      4 
    19     19     30     17     16     29 
    20     20     27     13     12     11 
    21     21     27     13     12     26 
    22     22     20     19     18     17 
    23     23     24     10      9     14 
    24     24     32     19     18     17 
    25     25     24     10      9      8 
    26     26     27     13     14      9 
    27     27     25     11     10     24 
    28     28     23      7      8      9 
    29     29     23      7      4      3 
    30     30     29     16     17     18 
    31     31     25     11     12     13 
    32     32     22      3      4      7 
    33     33     23      7      8      6 
    34     34      9      8      6      5 
    35     35     12     13     14      9 
    36     36     28     14      9     10 
    37     37     32     19     18     31 
    38     38     22      3      2     21 
    39     39     22      3      2      1 
    40     40     26     12     11     10 
    41     41     22      3      2     15 
    42     42     23      7      4      5 
    43     43     10      9      8      7 
    44     44     16     15      2      3 
    45     45     19     20     15      2 
    46     46     26     12     11     25 
    47     47     18     19     20     15 
    48     48     26     12     13     14 
    49     49     14      9      8      6 
    50     50     31     18     17     16 
    51     51      7      4      5      6 
    52     52     30     17     18     19 
    53     53      9      8      7      4 
    54     54     33     20     15     16 
    55     55     31     18     19     20 
    56     56     14      9      8      7 
    57     57     24     10     11     12 
    58     58     22      3      4      5 
    59     59     31     18     17     30 
    60     60      7      8      6      5 
    61     61     13     14      9     10 
    62     62     29     16     15     20 
    63     63      8      7      4      3 
    64     64      8      7      4      5 
    65     65      7      4      3      2 
    66     66     29     16     15      2 
    67     67     14      9     10     11 
    68     68     28     14     13     27 
    69     69     21      2     15     20 
    70     70     21      2     15     16 
    71     71     32     19     20     15 
    72     72      6      8      7      4 
    73     73     33     20     19     32 
    74     74     13     14      9      8 
    75     75     14     13     12     11 
    76     76     33     20     15      2 
    77     77     20     15      2      1 
    78     78     28     14     13     12 
    79     79     20     15     16     17 
    80     80     33     20     19     18 
    81     81     30     17     16     15 

Impropers

     1      1      4      3      5      7 
     2      2      8      9      6      7 
     3      3      9     10     14      8 
     4      4      2      1      3     15 
     5      5     15      2     20     16 
     6      6      2      1      3     21 
     7      7      3      2      4     22 
     8      8      7      4     23      8 
     9      9     10      9     11     24 
    10     10     11     25     10     12 
    11     11     12     26     11     13 
    12     12     13     27     12     14 
    13     13     14      9     28     13 
    14     14     16     17     29     15 
    15     15     17     18     30     16 
    16     16     18     17     19     31 
    17     17     19     18     20     32 
    18     18     20     33     19     15 
