LAMMPS data file Created by LigParGen - (Written by Leela S. Dodda)

      40 atoms
      41 bonds
      75 angles
     104 dihedrals
      28 impropers
 
      40 atom types
      41 bond types
      75 angle types
     104 dihedral types
      28 improper types
 
   -4.594830    45.405170 xlo xhi
   -2.165920    47.834080 ylo yhi
   -2.454320    47.545680 zlo zhi

Masses

       1     15.999  
       2     32.060  
       3     14.007  
       4     12.011  
       5     12.011  
       6     32.060  
       7     15.999  
       8     12.011  
       9     12.011  
      10     12.011  
      11     12.011  
      12     12.011  
      13     12.011  
      14     12.011  
      15     12.011  
      16     12.011  
      17     14.007  
      18     12.011  
      19     12.011  
      20     15.999  
      21      1.008  
      22      1.008  
      23      1.008  
      24      1.008  
      25      1.008  
      26      1.008  
      27      1.008  
      28      1.008  
      29      1.008  
      30      1.008  
      31      1.008  
      32      1.008  
      33      1.008  
      34      1.008  
      35      1.008  
      36      1.008  
      37      1.008  
      38      1.008  
      39      1.008  
      40      1.008  

Pair Coeffs 

       1      0.170  2.9600000 
       2      0.250  3.5500000 
       3      0.170  3.2500000 
       4      0.083  3.4500000 
       5      0.083  3.4500000 
       6      0.395  3.5600000 
       7      0.170  2.9600000 
       8      0.083  3.4500000 
       9      0.066  3.5000000 
      10      0.066  3.5000000 
      11      0.070  3.5500000 
      12      0.070  3.5500000 
      13      0.070  3.5500000 
      14      0.070  3.5500000 
      15      0.070  3.5500000 
      16      0.070  3.5500000 
      17      0.170  3.2500000 
      18      0.066  3.5000000 
      19      0.066  3.5000000 
      20      0.170  2.9600000 
      21      0.000  0.0000000 
      22      0.030  2.5000000 
      23      0.030  2.5000000 
      24      0.030  2.5000000 
      25      0.030  2.5000000 
      26      0.030  2.5000000 
      27      0.030  2.5000000 
      28      0.030  2.5000000 
      29      0.030  2.5000000 
      30      0.030  2.4200000 
      31      0.030  2.4200000 
      32      0.030  2.4200000 
      33      0.030  2.4200000 
      34      0.030  2.4200000 
      35      0.030  2.5000000 
      36      0.030  2.5000000 
      37      0.030  2.5000000 
      38      0.030  2.5000000 
      39      0.030  2.5000000 
      40      0.030  2.5000000 

Bond Coeffs 

       1   700.0000     1.4400 
       2   434.0000     1.6700 
       3   337.0000     1.4490 
       4   260.0000     1.5200 
       5   340.0000     1.7900 
       6   700.0000     1.5300 
       7   260.0000     1.5200 
       8   280.0000     1.5100 
       9   268.0000     1.5290 
      10   317.0000     1.5100 
      11   469.0000     1.4000 
      12   469.0000     1.4000 
      13   469.0000     1.4000 
      14   469.0000     1.4000 
      15   469.0000     1.4000 
      16   434.0000     1.6700 
      17   337.0000     1.4490 
      18   337.0000     1.4490 
      19   700.0000     1.4400 
      20   434.0000     1.0100 
      21   340.0000     1.0880 
      22   340.0000     1.0880 
      23   340.0000     1.0880 
      24   340.0000     1.0880 
      25   340.0000     1.0900 
      26   340.0000     1.0900 
      27   340.0000     1.0900 
      28   340.0000     1.0900 
      29   367.0000     1.0800 
      30   367.0000     1.0800 
      31   367.0000     1.0800 
      32   367.0000     1.0800 
      33   367.0000     1.0800 
      34   340.0000     1.0900 
      35   340.0000     1.0900 
      36   340.0000     1.0900 
      37   340.0000     1.0900 
      38   340.0000     1.0900 
      39   340.0000     1.0900 
      40   340.0000     1.7900 
      41   469.0000     1.4000 

Angle Coeffs 

       1    120.000    107.000
       2     50.000    120.000
       3     37.500    126.000
       4     50.000    108.600
       5     74.000    107.000
       6     37.500    126.000
       7     80.000    109.700
       8     58.350    112.700
       9     63.000    114.000
      10     70.000    120.000
      11     63.000    120.000
      12     63.000    120.000
      13     63.000    120.000
      14     70.000    120.000
      15    120.000    107.000
      16     50.000    120.000
      17     50.000    120.000
      18    104.000    119.000
      19    100.000    111.000
      20     37.500    117.200
      21     37.500    117.200
      22     37.500    117.200
      23     37.500    117.200
      24     37.500    110.700
      25     37.500    110.700
      26     37.500    110.700
      27     37.500    110.700
      28     35.000    120.000
      29     35.000    120.000
      30     35.000    120.000
      31     35.000    120.000
      32     35.000    120.000
      33     35.000    109.500
      34     35.000    109.500
      35     35.000    109.500
      36     35.000    109.500
      37     35.000    109.500
      38     35.000    109.500
      39    120.000    107.000
      40    120.000    107.000
      41     33.000    107.800
      42     35.000    114.300
      43     35.000    109.500
      44     35.000    120.000
      45     35.000    120.000
      46     35.000    109.500
      47     78.670    104.360
      48     37.500    117.200
      49     35.000    109.500
      50     33.000    107.800
      51     33.000    107.800
      52     50.000    108.600
      53     33.000    107.800
      54     33.000    107.800
      55     30.000     83.000
      56     33.000    107.800
      57     50.000    118.000
      58     35.000    120.000
      59     35.000    120.000
      60     74.000    107.000
      61     63.000    120.000
      62     37.500    117.200
      63     35.000    109.500
      64     37.500    110.700
      65     63.000    120.000
      66     35.000    109.500
      67     62.000     96.000
      68     40.000    113.000
      69     35.000    120.000
      70     33.000    107.800
      71     35.000    114.300
      72     35.000    109.500
      73     63.000    120.000
      74     37.500    110.700
      75     33.000    107.800

Dihedral Coeffs  

       1      0.000      0.000      0.000      0.000 
       2      2.929     -2.533      0.497      0.000 
       3      0.000      0.000      0.000      0.000 
       4      0.000      0.000      0.000      0.000 
       5      0.845     -0.962      0.713      0.000 
       6     -1.697     -0.456      0.585      0.000 
       7      0.000      0.000      0.000      0.000 
       8      0.000      7.250      0.000      0.000 
       9      0.000      7.250      0.000      0.000 
      10      0.000      7.250      0.000      0.000 
      11      0.000      0.000      0.000      0.000 
      12      1.362     -1.457      0.149      0.000 
      13      1.362     -1.457      0.149      0.000 
      14      0.000      0.000      0.000      0.000 
      15      0.000      0.000      0.000      0.000 
      16      2.074     -2.966      2.473      0.000 
      17      0.000      0.000      0.000      0.000 
      18      0.000      0.000      0.000      0.000 
      19      0.000      0.000      0.350      0.000 
      20      0.000      0.000      0.000      0.000 
      21      0.000      0.000      0.000      0.000 
      22      1.362     -1.457      0.149      0.000 
      23      0.000      7.250      0.000      0.000 
      24      0.000      0.000      0.300      0.000 
      25      0.000      0.000      0.647      0.000 
      26      0.000      0.000      0.350      0.000 
      27      0.000      0.000      0.000      0.000 
      28      0.000      0.000      0.000      0.000 
      29      0.000      0.000      0.647      0.000 
      30      2.929     -2.533      0.497      0.000 
      31      0.000      0.000      0.000      0.000 
      32      0.000      7.250      0.000      0.000 
      33      0.000      0.000      0.000      0.000 
      34      0.000      0.000      0.350      0.000 
      35      0.000      0.000      0.647      0.000 
      36      0.000      0.000      0.462      0.000 
      37      1.362     -1.457      0.149      0.000 
      38      0.000      7.250      0.000      0.000 
      39      0.000      0.000      0.000      0.000 
      40      0.000      0.000      0.000      0.000 
      41      0.000      0.000      0.300      0.000 
      42      0.000      7.250      0.000      0.000 
      43      0.000      0.000      0.000      0.000 
      44      1.671     -4.901      0.669      0.000 
      45      0.000      0.000      0.000      0.000 
      46      0.000      7.250      0.000      0.000 
      47      0.000      0.000      0.000      0.000 
      48      0.000      7.250      0.000      0.000 
      49      0.000      7.250      0.000      0.000 
      50      0.000      0.000      0.000      0.000 
      51      0.000      0.000      0.000      0.000 
      52      0.000      0.000      0.000      0.000 
      53      2.074     -2.966      2.473      0.000 
      54      0.000      0.000      0.300      0.000 
      55      0.000      0.000      0.000      0.000 
      56      0.000      0.000      0.000      0.000 
      57      0.000      7.250      0.000      0.000 
      58      0.000      0.000      0.300      0.000 
      59      0.000      7.250      0.000      0.000 
      60      0.000      7.250      0.000      0.000 
      61      0.000      0.000      0.000      0.000 
      62      0.000      0.000      0.000      0.000 
      63      2.929     -2.533      0.497      0.000 
      64      0.000      0.000      0.300      0.000 
      65      0.000      0.000      0.000      0.000 
      66      0.000      0.000      0.300      0.000 
      67      0.000      0.000      0.300      0.000 
      68      0.000      7.250      0.000      0.000 
      69      0.000      0.000      0.300      0.000 
      70      0.000      0.000      0.350      0.000 
      71      0.000      0.000      0.000      0.000 
      72      0.000      0.000      0.000      0.000 
      73      2.074     -2.966      2.473      0.000 
      74      0.000      0.000      0.000      0.000 
      75      0.000      7.250      0.000      0.000 
      76      0.000      0.000      0.000      0.000 
      77      0.000      0.000      0.000      0.000 
      78      0.000      0.000      0.000      0.000 
      79      0.000      0.000      0.000      0.000 
      80      0.000      7.250      0.000      0.000 
      81      0.000      0.000      0.462      0.000 
      82      0.000      0.000      0.300      0.000 
      83      0.000      0.000      0.000      0.000 
      84      0.000      0.000      0.300      0.000 
      85      1.362     -1.457      0.149      0.000 
      86      0.000      0.000      0.647      0.000 
      87      0.000      0.000      0.000      0.000 
      88      0.000      0.000      0.000      0.000 
      89      0.000      7.250      0.000      0.000 
      90      0.000      7.250      0.000      0.000 
      91      0.000      0.000      0.000      0.000 
      92      0.000      7.250      0.000      0.000 
      93      0.000      0.000      0.000      0.000 
      94      0.000      0.000      0.000      0.000 
      95      0.000      7.250      0.000      0.000 
      96      0.000      0.000      0.000      0.000 
      97      0.000      0.000      0.000      0.000 
      98      1.362     -1.457      0.149      0.000 
      99      0.000      0.000      0.000      0.000 
     100      0.000      7.250      0.000      0.000 
     101      0.000      7.250      0.000      0.000 
     102      0.000      0.000      0.000      0.000 
     103      0.000      7.250      0.000      0.000 
     104      0.000      7.250      0.000      0.000 

Improper Coeffs 

       1      0.000      -1       2 
       2      0.000      -1       2 
       3      2.500      -1       2 
       4      0.000      -1       2 
       5      2.500      -1       2 
       6      0.000      -1       2 
       7      2.500      -1       2 
       8      0.000      -1       2 
       9      0.000      -1       2 
      10      0.000      -1       2 
      11      0.000      -1       2 
      12      0.000      -1       2 
      13      0.000      -1       2 
      14      0.000      -1       2 
      15      0.000      -1       2 
      16      2.500      -1       2 
      17      2.500      -1       2 
      18      2.500      -1       2 
      19      2.500      -1       2 
      20      2.500      -1       2 
      21      0.000      -1       2 
      22      0.000      -1       2 
      23      0.000      -1       2 
      24      0.000      -1       2 
      25      0.000      -1       2 
      26      0.000      -1       2 
      27      0.000      -1       2 
      28      0.000      -1       2 

Atoms 

     1      1      1 -0.51490000    1.000  1.00000  0.00000
     2      1      2 1.80020000   -0.439  1.00000  0.00000
     3      1      3 -1.57390000   -1.008  1.00000  1.58925
     4      1      4 0.46460000   -0.794 -0.13942  2.60181
     5      1      5 -0.32680000    0.677 -0.56837  2.90007
     6      1      6 0.63960000    0.499 -2.12366  1.93275
     7      1      7 -0.61540000    0.917 -1.88507  0.44435
     8      1      8 -0.37220000   -1.243 -1.56778  2.14459
     9      1      9 -0.15220000   -1.605  0.24550  3.86817
    10      1     10 -0.12970000   -1.068  1.48788  4.58694
    11      1     11 -0.08780000   -1.939  1.84456  5.77130
    12      1     12 -0.14670000   -1.703  1.27354  7.03080
    13      1     13 -0.14600000   -2.510  1.60302  8.12405
    14      1     14 -0.14870000   -3.559  2.50526  7.97033
    15      1     15 -0.14540000   -3.802  3.07797  6.72373
    16      1     16 -0.14280000   -3.031  2.71044  5.61760
    17      1     17 -1.42710000   -0.963  2.56865 -0.39346
    18      1     18 0.20430000   -0.139  3.65734  0.17535
    19      1     19 0.20380000   -1.244  2.74065 -1.83692
    20      1     20 -0.51490000   -1.269  0.07107 -0.72696
    21      1     21 0.65060000   -2.007  1.19923  1.48305
    22      1     22 0.16900000    0.886 -0.78882  3.95371
    23      1     23 0.16900000    1.452  0.11331  2.54171
    24      1     24 0.16770000   -1.752 -2.16592  2.91130
    25      1     25 0.16770000   -1.863 -1.60150  1.24517
    26      1     26 0.10260000   -2.654  0.40856  3.58347
    27      1     27 0.10260000   -1.609 -0.59372  4.57609
    28      1     28 0.10890000   -1.014  2.34608  3.90616
    29      1     29 0.10890000   -0.042  1.31600  4.93335
    30      1     30 0.14480000   -0.888  0.56769  7.17039
    31      1     31 0.14860000   -2.319  1.15297  9.09542
    32      1     32 0.14900000   -4.186  2.76243  8.82096
    33      1     33 0.14900000   -4.595  3.81294  6.61268
    34      1     34 0.15000000   -3.286  3.10412  4.63600
    35      1     35 0.10770000   -0.390  3.78933  1.23139
    36      1     36 0.10770000   -0.341  4.60840 -0.32859
    37      1     37 0.10770000    0.932  3.46002  0.07662
    38      1     38 0.10680000   -2.188  2.24271 -2.08264
    39      1     39 0.10680000   -0.439  2.32941 -2.45432
    40      1     40 0.10680000   -1.369  3.79745 -2.09215

Bonds 

     1      1      2      1
     2      2      3      2
     3      3      4      3
     4      4      5      4
     5      5      6      5
     6      6      7      6
     7      7      8      4
     8      8      9      4
     9      9     10      9
    10     10     11     10
    11     11     12     11
    12     12     13     12
    13     13     14     13
    14     14     15     14
    15     15     16     11
    16     16     17      2
    17     17     18     17
    18     18     19     17
    19     19     20      2
    20     20     21      3
    21     21     22      5
    22     22     23      5
    23     23     24      8
    24     24     25      8
    25     25     26      9
    26     26     27      9
    27     27     28     10
    28     28     29     10
    29     29     30     12
    30     30     31     13
    31     31     32     14
    32     32     33     15
    33     33     34     16
    34     34     35     18
    35     35     36     18
    36     36     37     18
    37     37     38     19
    38     38     39     19
    39     39     40     19
    40     40      8      6
    41     41     16     15

Angles 

     1      1      1      2      3
     2      2      2      3      4
     3      3      3      4      5
     4      4      4      5      6
     5      5      5      6      7
     6      6      3      4      8
     7      7      3      4      9
     8      8      4      9     10
     9      9      9     10     11
    10     10     10     11     12
    11     11     11     12     13
    12     12     12     13     14
    13     13     13     14     15
    14     14     10     11     16
    15     15      1      2     17
    16     16      2     17     18
    17     17      2     17     19
    18     18      1      2     20
    19     19      2      3     21
    20     20      4      5     22
    21     21      4      5     23
    22     22      4      8     24
    23     23      4      8     25
    24     24      4      9     26
    25     25      4      9     27
    26     26      9     10     28
    27     27      9     10     29
    28     28     11     12     30
    29     29     12     13     31
    30     30     13     14     32
    31     31     14     15     33
    32     32     11     16     34
    33     33     17     18     35
    34     34     17     18     36
    35     35     17     18     37
    36     36     17     19     38
    37     37     17     19     39
    38     38     17     19     40
    39     39     17      2     20
    40     40      3      2     20
    41     41     36     18     37
    42     42     24      8     25
    43     43      6      8     24
    44     44     15     16     34
    45     45     15     14     32
    46     46      6      5     22
    47     47      3      2     17
    48     48      5      4      9
    49     49     11     10     29
    50     50     26      9     27
    51     51     35     18     36
    52     52      4      8      6
    53     53     38     19     40
    54     54     28     10     29
    55     55      5      4      8
    56     56     35     18     37
    57     57     18     17     19
    58     58     13     12     30
    59     59     14     13     31
    60     60      7      6      8
    61     61     12     11     16
    62     62      8      4      9
    63     63     11     10     28
    64     64     10      9     26
    65     65     14     15     16
    66     66      6      5     23
    67     67      5      6      8
    68     68      4      3     21
    69     69     16     15     33
    70     70     39     19     40
    71     71     22      5     23
    72     72      6      8     25
    73     73     11     16     15
    74     74     10      9     27
    75     75     38     19     39

Dihedrals

     1      1      4      3      2      1 
     2      2      5      4      3      2 
     3      3      6      5      4      3 
     4      4      7      6      5      4 
     5      5     10      9      4      3 
     6      6     11     10      9      4 
     7      7     12     11     10      9 
     8      8     13     12     11     10 
     9      9     14     13     12     11 
    10     10     15     14     13     12 
    11     11     18     17      2      1 
    12     12     35     18     17      2 
    13     13     38     19     17      2 
    14     14      6      8      4      3 
    15     15     21      3      2     20 
    16     16     19     17      2      3 
    17     17     35     18     17     19 
    18     18     24      8      4      9 
    19     19     24      8      6      7 
    20     20     20      2     17     19 
    21     21     40     19     17     18 
    22     22     39     19     17      2 
    23     23     31     13     12     30 
    24     24     28     10      9     26 
    25     25     22      5      6      8 
    26     26     23      5      6      7 
    27     27     39     19     17     18 
    28     28     24      8      4      5 
    29     29     23      5      6      8 
    30     30      9      4      3      2 
    31     31     20      2     17     18 
    32     32     33     15     14     32 
    33     33      9      4      5      6 
    34     34     25      8      6      7 
    35     35     25      8      6      5 
    36     36     26      9     10     11 
    37     37     40     19     17      2 
    38     38     16     11     12     13 
    39     39     22      5      4      9 
    40     40      9      4      8      6 
    41     41     29     10      9      4 
    42     42     15     16     11     12 
    43     43      7      6      8      4 
    44     44     21      3      2     17 
    45     45     21      3      4      8 
    46     46     31     13     14     15 
    47     47     29     10     11     12 
    48     48     32     14     13     31 
    49     49     30     12     13     14 
    50     50     19     17      2      1 
    51     51     22      5      4      3 
    52     52     36     18     17     19 
    53     53     17      2      3      4 
    54     54     29     10      9     27 
    55     55     25      8      4      3 
    56     56     29     10     11     16 
    57     57     34     16     15     14 
    58     58     26      9      4      8 
    59     59     34     16     15     33 
    60     60     31     13     12     11 
    61     61     25      8      4      9 
    62     62     23      5      4      3 
    63     63      8      4      3      2 
    64     64     27      9      4      8 
    65     65     10      9      4      8 
    66     66     29     10      9     26 
    67     67     28     10      9     27 
    68     68     30     12     11     10 
    69     69     26      9      4      5 
    70     70     22      5      6      7 
    71     71     28     10     11     16 
    72     72     10      9      4      5 
    73     73     18     17      2      3 
    74     74     25      8      4      5 
    75     75     15     16     11     10 
    76     76     20      2      3      4 
    77     77     22      5      4      8 
    78     78     23      5      4      8 
    79     79     28     10     11     12 
    80     80     34     16     11     12 
    81     81     27      9     10     11 
    82     82     28     10      9      4 
    83     83     21      3      4      5 
    84     84     27      9      4      5 
    85     85     37     18     17      2 
    86     86     24      8      6      5 
    87     87     23      5      4      9 
    88     88     16     11     10      9 
    89     89     33     15     14     13 
    90     90     16     15     14     13 
    91     91     24      8      4      3 
    92     92     33     15     16     11 
    93     93     37     18     17     19 
    94     94     21      3      4      9 
    95     95     34     16     11     10 
    96     96     21      3      2      1 
    97     97     38     19     17     18 
    98     98     36     18     17      2 
    99     99     26      9      4      3 
   100    100     30     12     11     16 
   101    101     14     15     16     11 
   102    102     27      9      4      3 
   103    103     32     14     15     16 
   104    104     32     14     13     12 

Impropers

     1      1      4      3      5      8 
     2      2      4      9      3      5 
     3      3     11     10     12     16 
     4      4      2     17      3      1 
     5      5     17      2     19     18 
     6      6      2      1      3     20 
     7      7      3      2      4     21 
     8      8      5      4     22      6 
     9      9      5      4      6     23 
    10     10      8      4      6     24 
    11     11      8     25      4      6 
    12     12      9     26      4     10 
    13     13      9     10     27      4 
    14     14     10      9     11     28 
    15     15     10      9     11     29 
    16     16     12     11     13     30 
    17     17     13     12     14     31 
    18     18     14     13     15     32 
    19     19     15     33     14     16 
    20     20     16     34     11     15 
    21     21     18     17     35     36 
    22     22     18     17     35     37 
    23     23     19     17     38     39 
    24     24     19     17     38     40 
    25     25      4      5      6      8 
    26     26      4      5      6      8 
    27     27      4      5      6      8 
    28     28      4      5      6      8 
