LAMMPS data file Created by LigParGen - (Written by Leela S. Dodda)

      35 atoms
      36 bonds
      66 angles
      96 dihedrals
      25 impropers
 
      35 atom types
      36 bond types
      66 angle types
      96 dihedral types
      25 improper types
 
   -9.262210    40.737790 xlo xhi
   -3.246610    46.753390 ylo yhi
   -0.907580    49.092420 zlo zhi

Masses

       1     15.999  
       2     32.060  
       3     12.011  
       4     12.011  
       5     14.007  
       6     12.011  
       7     12.011  
       8     15.999  
       9     12.011  
      10     12.011  
      11     12.011  
      12     12.011  
      13     12.011  
      14     12.011  
      15     12.011  
      16     12.011  
      17     12.011  
      18     15.999  
      19      1.008  
      20      1.008  
      21      1.008  
      22      1.008  
      23      1.008  
      24      1.008  
      25      1.008  
      26      1.008  
      27      1.008  
      28      1.008  
      29      1.008  
      30      1.008  
      31      1.008  
      32      1.008  
      33      1.008  
      34      1.008  
      35      1.008  

Pair Coeffs 

       1      0.170  2.9600000 
       2      0.250  3.5500000 
       3      0.083  3.4500000 
       4      0.083  3.4500000 
       5      0.170  3.2500000 
       6      0.070  3.5500000 
       7      0.066  3.5000000 
       8      0.210  2.9600000 
       9      0.066  3.5000000 
      10      0.066  3.5000000 
      11      0.070  3.5500000 
      12      0.070  3.5500000 
      13      0.070  3.5500000 
      14      0.070  3.5500000 
      15      0.070  3.5500000 
      16      0.070  3.5500000 
      17      0.083  3.4500000 
      18      0.170  2.9600000 
      19      0.030  2.5000000 
      20      0.030  2.5000000 
      21      0.000  0.0000000 
      22      0.030  2.5000000 
      23      0.030  2.5000000 
      24      0.030  2.5000000 
      25      0.030  2.5000000 
      26      0.030  2.5000000 
      27      0.030  2.5000000 
      28      0.030  2.5000000 
      29      0.030  2.4200000 
      30      0.030  2.4200000 
      31      0.030  2.4200000 
      32      0.030  2.4200000 
      33      0.030  2.4200000 
      34      0.030  2.5000000 
      35      0.030  2.5000000 

Bond Coeffs 

       1   700.0000     1.4400 
       2   340.0000     1.7700 
       3   260.0000     1.5200 
       4   337.0000     1.4490 
       5   490.0000     1.3350 
       6   317.0000     1.5220 
       7   570.0000     1.2290 
       8   280.0000     1.5100 
       9   268.0000     1.5290 
      10   317.0000     1.5100 
      11   469.0000     1.4000 
      12   469.0000     1.4000 
      13   469.0000     1.4000 
      14   469.0000     1.4000 
      15   469.0000     1.4000 
      16   340.0000     1.7700 
      17   700.0000     1.4400 
      18   340.0000     1.0880 
      19   340.0000     1.0880 
      20   434.0000     1.0100 
      21   340.0000     1.0900 
      22   340.0000     1.0900 
      23   340.0000     1.0900 
      24   340.0000     1.0900 
      25   340.0000     1.0900 
      26   340.0000     1.0900 
      27   340.0000     1.0900 
      28   367.0000     1.0800 
      29   367.0000     1.0800 
      30   367.0000     1.0800 
      31   367.0000     1.0800 
      32   367.0000     1.0800 
      33   340.0000     1.0880 
      34   340.0000     1.0880 
      35   260.0000     1.5200 
      36   469.0000     1.4000 

Angle Coeffs 

       1     74.000    108.900
       2     55.000    128.000
       3     37.500    126.000
       4     55.000    128.000
       5     70.000    116.600
       6     80.000    122.900
       7     37.500    117.200
       8     58.350    112.700
       9     63.000    114.000
      10     70.000    120.000
      11     63.000    120.000
      12     63.000    120.000
      13     63.000    120.000
      14     70.000    120.000
      15     74.000    108.900
      16    104.000    119.000
      17     37.500    108.000
      18     37.500    108.000
      19     40.000    113.000
      20     35.000    109.500
      21     35.000    109.500
      22     35.000    109.500
      23     37.500    110.700
      24     37.500    110.700
      25     37.500    110.700
      26     37.500    110.700
      27     35.000    120.000
      28     35.000    120.000
      29     35.000    120.000
      30     35.000    120.000
      31     35.000    120.000
      32     37.500    108.000
      33     37.500    108.000
      34     33.000    107.800
      35     33.000    107.800
      36     35.000    109.500
      37     35.000    114.300
      38     35.000    120.000
      39     74.000    108.900
      40     37.500    117.200
      41     37.500    117.200
      42     33.000    107.800
      43     35.000    120.000
      44     62.000    102.000
      45     80.000    109.700
      46     30.000     83.000
      47     33.000    107.800
      48     37.500    117.200
      49     55.000    128.000
      50     74.000    108.900
      51     33.000    107.800
      52     37.500    117.200
      53     80.000    120.400
      54     63.000    120.000
      55     63.000    120.000
      56     37.500    110.700
      57     35.000    119.800
      58     35.000    109.500
      59     37.500    110.700
      60     35.000    114.300
      61     35.000    120.000
      62     35.000    120.000
      63     37.500    117.200
      64     35.000    120.000
      65     63.000    120.000
      66     37.500    126.000

Dihedral Coeffs  

       1      0.000      0.000      0.000      0.000 
       2      0.000      0.000      0.000      0.000 
       3     -1.396     -0.427      0.000      0.000 
       4      2.300      6.089      0.000      0.000 
       5      0.000      0.000      0.000      0.000 
       6     -1.697     -0.456      0.585      0.000 
       7      0.000      0.000      0.000      0.000 
       8      0.000      7.250      0.000      0.000 
       9      0.000      7.250      0.000      0.000 
      10      0.000      7.250      0.000      0.000 
      11      0.000      0.000      0.000      0.000 
      12      0.000      0.000      0.000      0.000 
      13      0.000      7.250      0.000      0.000 
      14      0.000      7.250      0.000      0.000 
      15      0.000      7.250      0.000      0.000 
      16      0.000      0.000      0.000      0.000 
      17      0.000      0.000      0.000      0.000 
      18      0.000      0.000      0.000      0.000 
      19      0.000      6.089      0.000      0.000 
      20      0.000      0.000      0.300      0.000 
      21      0.000      0.000      0.350      0.000 
      22      0.000      0.000      0.000      0.000 
      23      0.000      0.000      0.000      0.000 
      24      0.000      0.000      0.350      0.000 
      25      0.000      7.250      0.000      0.000 
      26      0.000      0.000      0.300      0.000 
      27      0.000      7.250      0.000      0.000 
      28      0.000      0.000      0.000      0.000 
      29      0.000      0.000      0.300      0.000 
      30      0.000      0.000      0.300      0.000 
      31     -1.396     -0.427      0.000      0.000 
      32      0.000      7.250      0.000      0.000 
      33      0.000      0.000      0.000      0.000 
      34      0.000      0.000      0.000      0.000 
      35      0.000      0.000      0.462      0.000 
      36      0.000      0.000      0.350      0.000 
      37      0.000      0.000      0.350      0.000 
      38     -1.396     -0.427      0.000      0.000 
      39      0.000      7.250      0.000      0.000 
      40      0.000      0.000      0.462      0.000 
      41      0.000      7.250      0.000      0.000 
      42      0.000      0.000      0.000      0.000 
      43      0.000      0.000      0.350      0.000 
      44      0.000      0.000      0.000      0.000 
      45      0.000      0.000      0.350      0.000 
      46      0.000      0.000      0.000      0.000 
      47      0.000      7.250      0.000      0.000 
      48      0.000      7.250      0.000      0.000 
      49      0.000      0.000      0.000      0.000 
      50      0.000      7.250      0.000      0.000 
      51      0.000      4.900      0.000      0.000 
      52      0.000      0.000      0.300      0.000 
      53      0.000      0.000      0.000      0.000 
      54      0.000      7.250      0.000      0.000 
      55      0.000      0.000      0.000      0.000 
      56      0.000      0.000      0.300      0.000 
      57      0.000      0.000      0.300      0.000 
      58      0.000      7.250      0.000      0.000 
      59      0.000      0.000      0.000      0.000 
      60      0.000      0.000      0.350      0.000 
      61      0.000      0.000      0.350      0.000 
      62      0.000      0.000      0.000      0.000 
      63      0.000      0.000      0.000      0.000 
      64      0.000      0.000      0.300      0.000 
      65      0.000      0.000      0.000      0.000 
      66      0.000      0.000      0.000      0.000 
      67      0.000      0.000      0.000      0.000 
      68      0.000      4.900      0.000      0.000 
      69      0.000      0.000      0.000      0.000 
      70      0.000      0.000      0.000      0.000 
      71      0.000      7.250      0.000      0.000 
      72      0.845     -0.962      0.713      0.000 
      73      0.000      0.000      0.000      0.000 
      74      0.000      7.250      0.000      0.000 
      75      0.000      7.250      0.000      0.000 
      76      0.000      0.000      0.000      0.000 
      77      0.000      0.000      0.000      0.000 
      78      0.000      0.000      0.000      0.000 
      79      0.000      0.000      0.300      0.000 
      80      0.000      7.250      0.000      0.000 
      81      0.000      0.000      0.000      0.000 
      82      0.000      7.250      0.000      0.000 
      83      0.000      0.000      0.000      0.000 
      84      0.000      0.000      0.000      0.000 
      85      0.000      0.000      0.350      0.000 
      86      0.000      0.000      0.350      0.000 
      87      0.000      7.250      0.000      0.000 
      88      0.000      0.000      0.000      0.000 
      89      0.000      7.250      0.000      0.000 
      90      0.000      0.000      0.000      0.000 
      91      0.000      0.000      0.300      0.000 
      92      0.000      0.000      0.000      0.000 
      93      0.000      0.000      0.350      0.000 
      94      0.000      7.250      0.000      0.000 
      95      0.000      0.000      0.000      0.000 
      96      0.000      0.000      0.350      0.000 

Improper Coeffs 

       1     10.500      -1       2 
       2      0.000      -1       2 
       3      2.500      -1       2 
       4      0.000      -1       2 
       5      0.000      -1       2 
       6      0.000      -1       2 
       7      0.000      -1       2 
       8      2.500      -1       2 
       9      0.000      -1       2 
      10      0.000      -1       2 
      11      0.000      -1       2 
      12      0.000      -1       2 
      13      0.000      -1       2 
      14      0.000      -1       2 
      15      2.500      -1       2 
      16      2.500      -1       2 
      17      2.500      -1       2 
      18      2.500      -1       2 
      19      2.500      -1       2 
      20      0.000      -1       2 
      21      0.000      -1       2 
      22      0.000      -1       2 
      23      0.000      -1       2 
      24      0.000      -1       2 
      25      0.000      -1       2 

Atoms 

     1      1      1 -0.54600000    1.000  1.00000  0.00000
     2      1      2 1.31760000   -0.448  1.00000  0.00000
     3      1      3 -0.49430000   -1.106  1.00000  1.63635
     4      1      4 0.35560000   -2.033 -0.21462  1.28962
     5      1      5 -1.12300000   -2.086 -1.30848  2.31768
     6      1      6 0.61540000   -2.108 -1.09405  3.67923
     7      1      7 -0.27470000   -2.225 -2.35081  4.50487
     8      1      8 -0.44090000   -2.039  0.01941  4.18645
     9      1      9 -0.17850000   -3.464  0.08965  0.81099
    10      1     10 -0.12930000   -4.286  0.86270  1.84801
    11      1     11 -0.08920000   -5.677  1.13883  1.33503
    12      1     12 -0.14480000   -6.712  0.22365  1.56743
    13      1     13 -0.14750000   -7.999  0.47841  1.09152
    14      1     14 -0.14800000   -8.260  1.64846  0.38065
    15      1     15 -0.14440000   -7.236  2.56376  0.14557
    16      1     16 -0.13900000   -5.937  2.28697  0.57355
    17      1     17 -0.56890000   -1.084 -0.64135  0.12113
    18      1     18 -0.54600000   -1.230  1.81177 -0.90758
    19      1     19 0.19390000   -1.604  1.94046  1.88512
    20      1     20 0.19390000   -0.323  0.80929  2.37630
    21      1     21 0.51930000   -2.215 -2.26584  2.00484
    22      1     22 0.11840000   -2.275 -3.24661  3.87980
    23      1     23 0.11840000   -3.137 -2.29814  5.10479
    24      1     24 0.11840000   -1.353 -2.43340  5.15872
    25      1     25 0.11730000   -3.972 -0.85134  0.55978
    26      1     26 0.11730000   -3.436  0.66782 -0.12027
    27      1     27 0.11090000   -3.805  1.81484  2.09859
    28      1     28 0.11090000   -4.356  0.30524  2.78850
    29      1     29 0.14480000   -6.520 -0.69142  2.12146
    30      1     30 0.14750000   -8.796 -0.23643  1.27446
    31      1     31 0.14810000   -9.262  1.84633  0.00897
    32      1     32 0.15020000   -7.447  3.49521 -0.37320
    33      1     33 0.15500000   -5.129  2.96661  0.31138
    34      1     34 0.18090000   -0.301 -1.35689  0.39624
    35      1     35 0.18090000   -1.575 -0.99034 -0.79186

Bonds 

     1      1      2      1
     2      2      3      2
     3      3      4      3
     4      4      5      4
     5      5      6      5
     6      6      7      6
     7      7      8      6
     8      8      9      4
     9      9     10      9
    10     10     11     10
    11     11     12     11
    12     12     13     12
    13     13     14     13
    14     14     15     14
    15     15     16     11
    16     16     17      2
    17     17     18      2
    18     18     19      3
    19     19     20      3
    20     20     21      5
    21     21     22      7
    22     22     23      7
    23     23     24      7
    24     24     25      9
    25     25     26      9
    26     26     27     10
    27     27     28     10
    28     28     29     12
    29     29     30     13
    30     30     31     14
    31     31     32     15
    32     32     33     16
    33     33     34     17
    34     34     35     17
    35     35     17      4
    36     36     16     15

Angles 

     1      1      1      2      3
     2      2      2      3      4
     3      3      3      4      5
     4      4      4      5      6
     5      5      5      6      7
     6      6      5      6      8
     7      7      3      4      9
     8      8      4      9     10
     9      9      9     10     11
    10     10     10     11     12
    11     11     11     12     13
    12     12     12     13     14
    13     13     13     14     15
    14     14     10     11     16
    15     15      1      2     17
    16     16      1      2     18
    17     17      2      3     19
    18     18      2      3     20
    19     19      4      5     21
    20     20      6      7     22
    21     21      6      7     23
    22     22      6      7     24
    23     23      4      9     25
    24     24      4      9     26
    25     25      9     10     27
    26     26      9     10     28
    27     27     11     12     29
    28     28     12     13     30
    29     29     13     14     31
    30     30     14     15     32
    31     31     11     16     33
    32     32      2     17     34
    33     33      2     17     35
    34     34     23      7     24
    35     35     27     10     28
    36     36     11     10     27
    37     37     34     17     35
    38     38     16     15     32
    39     39      3      2     18
    40     40      4     17     34
    41     41      9      4     17
    42     42     25      9     26
    43     43     14     13     30
    44     44      3      2     17
    45     45      5      4      9
    46     46      3      4     17
    47     47     22      7     23
    48     48      4      3     19
    49     49      2     17      4
    50     50     17      2     18
    51     51     22      7     24
    52     52      4     17     35
    53     53      7      6      8
    54     54     12     11     16
    55     55     14     15     16
    56     56     10      9     25
    57     57      6      5     21
    58     58     11     10     28
    59     59     10      9     26
    60     60     19      3     20
    61     61     15     16     33
    62     62     15     14     31
    63     63      4      3     20
    64     64     13     12     29
    65     65     11     16     15
    66     66      5      4     17

Dihedrals

     1      1      4      3      2      1 
     2      2      5      4      3      2 
     3      3      6      5      4      3 
     4      4      7      6      5      4 
     5      5     10      9      4      3 
     6      6     11     10      9      4 
     7      7     12     11     10      9 
     8      8     13     12     11     10 
     9      9     14     13     12     11 
    10     10     15     14     13     12 
    11     11     22      7      6      5 
    12     12     23      7      6      8 
    13     13     29     12     13     14 
    14     14     32     15     14     31 
    15     15     29     12     11     16 
    16     16     27     10     11     16 
    17     17     18      2     17      4 
    18     18     35     17      4      3 
    19     19      8      6      5      4 
    20     20     26      9      4     17 
    21     21     35     17      2      3 
    22     22     19      3      4      9 
    23     23     21      5      4      3 
    24     24     19      3      2     17 
    25     25     33     16     15     32 
    26     26     28     10      9     26 
    27     27     32     15     14     13 
    28     28     24      7      6      5 
    29     29     28     10      9     25 
    30     30     27     10      9     26 
    31     31      9      4      5      6 
    32     32     29     12     11     10 
    33     33     34     17      4      5 
    34     34     27     10     11     12 
    35     35     26      9     10     11 
    36     36     19      3      2      1 
    37     37     35     17      2     18 
    38     38     17      4      5      6 
    39     39     15     16     11     12 
    40     40     25      9     10     11 
    41     41     31     14     15     16 
    42     42     21      5      4     17 
    43     43     20      3      2      1 
    44     44      5      4     17      2 
    45     45     20      3      2     18 
    46     46     35     17      4      9 
    47     47     32     15     16     11 
    48     48     33     16     11     12 
    49     49     22      7      6      8 
    50     50     30     13     14     15 
    51     51     21      5      6      7 
    52     52     27     10      9     25 
    53     53      4     17      2      1 
    54     54     33     16     15     14 
    55     55     20      3      4      5 
    56     56     25      9      4     17 
    57     57     25      9      4      3 
    58     58     16     11     12     13 
    59     59     20      3      4      9 
    60     60     34     17      2     18 
    61     61     34     17      2      3 
    62     62     20      3      4     17 
    63     63     19      3      4     17 
    64     64     27     10      9      4 
    65     65     34     17      4      3 
    66     66     26      9      4      5 
    67     67     23      7      6      5 
    68     68     21      5      6      8 
    69     69      9      4     17      2 
    70     70     28     10     11     16 
    71     71     30     13     12     29 
    72     72     10      9      4      5 
    73     73      9      4      3      2 
    74     74     15     16     11     10 
    75     75     30     13     12     11 
    76     76     21      5      4      9 
    77     77     24      7      6      8 
    78     78     28     10     11     12 
    79     79     28     10      9      4 
    80     80     31     14     13     30 
    81     81     35     17      4      5 
    82     82     31     14     13     12 
    83     83     16     11     10      9 
    84     84     34     17      4      9 
    85     85     20      3      2     17 
    86     86     19      3      2     18 
    87     87     16     15     14     13 
    88     88     19      3      4      5 
    89     89     33     16     11     10 
    90     90     18      2      3      4 
    91     91     26      9      4      3 
    92     92     17      4      9     10 
    93     93     34     17      2      1 
    94     94     14     15     16     11 
    95     95     25      9      4      5 
    96     96     35     17      2      1 

Impropers

     1      1      6      5      7      8 
     2      2      4      9      3      5 
     3      3     11     10     12     16 
     4      4      2     17      3      1 
     5      5      2      1     18      3 
     6      6      3      2     19      4 
     7      7      3      4      2     20 
     8      8      5      4     21      6 
     9      9      7     22     23      6 
    10     10      7     22      6     24 
    11     11      9     25      4     10 
    12     12      9     26      4     10 
    13     13     10      9     27     11 
    14     14     10      9     11     28 
    15     15     12     13     11     29 
    16     16     13     12     30     14 
    17     17     14     15     13     31 
    18     18     15     16     14     32 
    19     19     16     33     11     15 
    20     20     17     34      4      2 
    21     21     17      2     35      4 
    22     22     17      2      3      4 
    23     23     17      2      3      4 
    24     24     17      2      3      4 
    25     25     17      2      3      4 
