LAMMPS data file Created by LigParGen - (Written by Leela S. Dodda)

      28 atoms
      28 bonds
      48 angles
      64 dihedrals
      16 impropers
 
      28 atom types
      28 bond types
      48 angle types
      64 dihedral types
      16 improper types
 
   -3.668760    46.331240 xlo xhi
   -1.235050    48.764950 ylo yhi
   -1.878980    48.121020 zlo zhi

Masses

       1     15.999  
       2     32.060  
       3     12.011  
       4     12.011  
       5     12.011  
       6     12.011  
       7     12.011  
       8     12.011  
       9     12.011  
      10     12.011  
      11     14.007  
      12     12.011  
      13     12.011  
      14     15.999  
      15     15.999  
      16      1.008  
      17      1.008  
      18      1.008  
      19      1.008  
      20      1.008  
      21      1.008  
      22      1.008  
      23      1.008  
      24      1.008  
      25      1.008  
      26      1.008  
      27      1.008  
      28      1.008  

Pair Coeffs 

       1      0.170  2.9600000 
       2      0.250  3.5500000 
       3      0.066  3.5000000 
       4      0.066  3.5000000 
       5      0.070  3.5500000 
       6      0.070  3.5500000 
       7      0.070  3.5500000 
       8      0.070  3.5500000 
       9      0.070  3.5500000 
      10      0.070  3.5500000 
      11      0.170  3.2500000 
      12      0.070  3.5500000 
      13      0.066  3.5000000 
      14      0.210  2.9600000 
      15      0.170  2.9600000 
      16      0.030  2.5000000 
      17      0.030  2.5000000 
      18      0.030  2.5000000 
      19      0.030  2.5000000 
      20      0.030  2.4200000 
      21      0.030  2.4200000 
      22      0.030  2.4200000 
      23      0.030  2.4200000 
      24      0.030  2.4200000 
      25      0.000  0.0000000 
      26      0.030  2.5000000 
      27      0.030  2.5000000 
      28      0.030  2.5000000 

Bond Coeffs 

       1   700.0000     1.4400 
       2   340.0000     1.7700 
       3   268.0000     1.5290 
       4   317.0000     1.5100 
       5   469.0000     1.4000 
       6   469.0000     1.4000 
       7   469.0000     1.4000 
       8   469.0000     1.4000 
       9   469.0000     1.4000 
      10   434.0000     1.6700 
      11   490.0000     1.3350 
      12   317.0000     1.5220 
      13   570.0000     1.2290 
      14   700.0000     1.4400 
      15   340.0000     1.0900 
      16   340.0000     1.0900 
      17   340.0000     1.0900 
      18   340.0000     1.0900 
      19   367.0000     1.0800 
      20   367.0000     1.0800 
      21   367.0000     1.0800 
      22   367.0000     1.0800 
      23   367.0000     1.0800 
      24   434.0000     1.0100 
      25   340.0000     1.0900 
      26   340.0000     1.0900 
      27   340.0000     1.0900 
      28   469.0000     1.4000 

Angle Coeffs 

       1     74.000    108.900
       2     50.000    108.600
       3     63.000    114.000
       4     70.000    120.000
       5     63.000    120.000
       6     63.000    120.000
       7     63.000    120.000
       8     70.000    120.000
       9    120.000    107.000
      10     70.000    112.000
      11     70.000    116.600
      12     80.000    122.900
      13    104.000    119.000
      14     35.000    109.500
      15     35.000    109.500
      16     37.500    110.700
      17     37.500    110.700
      18     35.000    120.000
      19     35.000    120.000
      20     35.000    120.000
      21     35.000    120.000
      22     35.000    120.000
      23    100.000    111.000
      24     35.000    109.500
      25     35.000    109.500
      26     35.000    109.500
      27     35.000    120.000
      28     74.000    108.900
      29     80.000    120.400
      30    120.000    107.000
      31     63.000    120.000
      32     63.000    120.000
      33     35.000    119.800
      34     35.000    120.000
      35     33.000    107.800
      36    100.000    103.000
      37     33.000    107.800
      38     35.000    109.500
      39     35.000    120.000
      40     35.000    120.000
      41     33.000    107.800
      42     33.000    107.800
      43     37.500    110.700
      44     37.500    110.700
      45     33.000    107.800
      46     63.000    120.000
      47     35.000    109.500
      48     35.000    120.000

Dihedral Coeffs  

       1      0.000      0.000      0.000      0.000 
       2      1.262     -0.198      0.465      0.000 
       3      0.000      0.000      0.000      0.000 
       4      0.000      7.250      0.000      0.000 
       5      0.000      7.250      0.000      0.000 
       6      0.000      7.250      0.000      0.000 
       7      0.000      0.000      0.000      0.000 
       8      2.929     -2.533      0.497      0.000 
       9      0.000      0.000      0.000      0.000 
      10      0.000      0.000      0.300      0.000 
      11      2.074     -2.966      2.473      0.000 
      12      0.000      0.000      0.000      0.000 
      13      0.000      0.000      0.000      0.000 
      14      0.000      0.000      0.000      0.000 
      15      0.000      0.000      0.452      0.000 
      16      0.000      7.250      0.000      0.000 
      17      0.000      4.900      0.000      0.000 
      18      0.000      0.000      0.300      0.000 
      19      0.000      0.000      0.350      0.000 
      20      0.000      0.000      0.462      0.000 
      21      0.000      7.250      0.000      0.000 
      22      0.000      7.250      0.000      0.000 
      23      0.000      7.250      0.000      0.000 
      24      0.000      7.250      0.000      0.000 
      25      0.000      0.000      0.300      0.000 
      26      0.000      0.000      0.000      0.000 
      27      0.000      6.089      0.000      0.000 
      28      0.000      0.000      0.000      0.000 
      29      1.671     -4.901      0.669      0.000 
      30      0.000      0.000      0.000      0.000 
      31      0.000      7.250      0.000      0.000 
      32      0.000      0.000      0.452      0.000 
      33      0.000      7.250      0.000      0.000 
      34      0.000      0.000      0.462      0.000 
      35      0.000      7.250      0.000      0.000 
      36      0.000      7.250      0.000      0.000 
      37      0.000      0.000      0.300      0.000 
      38      0.000      0.000      0.000      0.000 
      39      0.000      0.000      0.000      0.000 
      40      0.000      0.000      0.000      0.000 
      41      0.000      0.000      0.350      0.000 
      42      0.000      0.000      0.350      0.000 
      43      0.000      0.000      0.350      0.000 
      44      0.000      7.250      0.000      0.000 
      45      0.000      7.250      0.000      0.000 
      46      0.000      7.250      0.000      0.000 
      47      0.000      0.000      0.000      0.000 
      48      0.000      0.000      0.000      0.000 
      49      0.000      0.000      0.000      0.000 
      50      0.000      0.000      0.000      0.000 
      51      0.000      7.250      0.000      0.000 
      52      0.000      0.000      0.000      0.000 
      53      0.000      0.000      0.000      0.000 
      54      0.000      0.000      0.000      0.000 
      55      0.000      7.250      0.000      0.000 
      56      0.000      7.250      0.000      0.000 
      57      0.000      7.250      0.000      0.000 
      58      0.000      7.250      0.000      0.000 
      59      0.000      7.250      0.000      0.000 
      60      0.000      7.250      0.000      0.000 
      61      0.000      7.250      0.000      0.000 
      62      0.000      7.250      0.000      0.000 
      63      0.000      4.900      0.000      0.000 
      64      0.000      0.000      0.000      0.000 

Improper Coeffs 

       1      2.500      -1       2 
       2      0.000      -1       2 
       3     10.500      -1       2 
       4      0.000      -1       2 
       5      0.000      -1       2 
       6      0.000      -1       2 
       7      0.000      -1       2 
       8      0.000      -1       2 
       9      2.500      -1       2 
      10      2.500      -1       2 
      11      2.500      -1       2 
      12      2.500      -1       2 
      13      2.500      -1       2 
      14      2.500      -1       2 
      15      0.000      -1       2 
      16      0.000      -1       2 

Atoms 

     1      1      1 -0.52090000    1.000  1.00000  0.00000
     2      1      2 1.59790000   -0.449  1.00000  0.00000
     3      1      3 -0.49790000   -0.998  1.00000  1.70207
     4      1      4 -0.10130000   -0.549 -0.26998  2.40845
     5      1      5 -0.07850000   -1.007 -0.28663  3.84637
     6      1      6 -0.13690000   -2.263 -0.80939  4.18066
     7      1      7 -0.14550000   -2.693 -0.82617  5.50862
     8      1      8 -0.14520000   -1.871 -0.32088  6.51341
     9      1      9 -0.14720000   -0.619  0.20101  6.18995
    10      1     10 -0.13980000   -0.186  0.21958  4.86404
    11      1     11 -1.83520000   -0.861  2.52729 -0.50205
    12      1     12 0.84600000   -2.172  2.99504 -0.65733
    13      1     13 -0.26420000   -2.281  4.41952 -1.12341
    14      1     14 -0.36510000   -3.154  2.33276 -0.35764
    15      1     15 -0.52090000   -1.191  0.02278 -0.76076
    16      1     16 0.17220000   -2.089  1.08696  1.70089
    17      1     17 0.17220000   -0.566  1.88555  2.18028
    18      1     18 0.11680000    0.543 -0.36373  2.37310
    19      1     19 0.11680000   -0.939 -1.15581  1.89118
    20      1     20 0.15400000   -2.916 -1.20875  3.40697
    21      1     21 0.15130000   -3.669 -1.23505  5.75715
    22      1     22 0.14920000   -2.205 -0.33556  7.54737
    23      1     23 0.14920000    0.022  0.59401  6.97512
    24      1     24 0.14990000    0.794  0.62951  4.63005
    25      1     25 0.73840000   -0.056  3.11662 -0.69329
    26      1     26 0.12820000   -1.342  4.77209 -1.55780
    27      1     27 0.12820000   -2.535  5.04893 -0.26584
    28      1     28 0.12820000   -3.068  4.49374 -1.87898

Bonds 

     1      1      2      1
     2      2      3      2
     3      3      4      3
     4      4      5      4
     5      5      6      5
     6      6      7      6
     7      7      8      7
     8      8      9      8
     9      9     10      5
    10     10     11      2
    11     11     12     11
    12     12     13     12
    13     13     14     12
    14     14     15      2
    15     15     16      3
    16     16     17      3
    17     17     18      4
    18     18     19      4
    19     19     20      6
    20     20     21      7
    21     21     22      8
    22     22     23      9
    23     23     24     10
    24     24     25     11
    25     25     26     13
    26     26     27     13
    27     27     28     13
    28     28     10      9

Angles 

     1      1      1      2      3
     2      2      2      3      4
     3      3      3      4      5
     4      4      4      5      6
     5      5      5      6      7
     6      6      6      7      8
     7      7      7      8      9
     8      8      4      5     10
     9      9      1      2     11
    10     10      2     11     12
    11     11     11     12     13
    12     12     11     12     14
    13     13      1      2     15
    14     14      2      3     16
    15     15      2      3     17
    16     16      3      4     18
    17     17      3      4     19
    18     18      5      6     20
    19     19      6      7     21
    20     20      7      8     22
    21     21      8      9     23
    22     22      5     10     24
    23     23      2     11     25
    24     24     12     13     26
    25     25     12     13     27
    26     26     12     13     28
    27     27      9     10     24
    28     28      3      2     15
    29     29     13     12     14
    30     30     11      2     15
    31     31      6      5     10
    32     32      5     10      9
    33     33     12     11     25
    34     34     10      9     23
    35     35     18      4     19
    36     36      3      2     11
    37     37     26     13     27
    38     38      5      4     19
    39     39      9      8     22
    40     40      8      7     21
    41     41     27     13     28
    42     42     26     13     28
    43     43      4      3     16
    44     44      4      3     17
    45     45     16      3     17
    46     46      8      9     10
    47     47      5      4     18
    48     48      7      6     20

Dihedrals

     1      1      4      3      2      1 
     2      2      5      4      3      2 
     3      3      6      5      4      3 
     4      4      7      6      5      4 
     5      5      8      7      6      5 
     6      6      9      8      7      6 
     7      7     12     11      2      1 
     8      8     13     12     11      2 
     9      9     26     13     12     11 
    10     10     18      4      3     16 
    11     11     12     11      2      3 
    12     12     15      2      3      4 
    13     13     27     13     12     11 
    14     14     25     11      2     15 
    15     15     18      4      3      2 
    16     16     20      6      5      4 
    17     17     25     11     12     14 
    18     18     18      4      3     17 
    19     19     16      3      2     15 
    20     20     16      3      4      5 
    21     21      8      9     10      5 
    22     22     22      8      9     10 
    23     23     23      9      8      7 
    24     24     21      7      6     20 
    25     25     19      4      3     16 
    26     26     18      4      5      6 
    27     27     14     12     11      2 
    28     28     19      4      5     10 
    29     29     25     11      2      3 
    30     30     15      2     11     12 
    31     31     10      5      6      7 
    32     32     19      4      3      2 
    33     33     10      9      8      7 
    34     34     17      3      4      5 
    35     35     23      9     10      5 
    36     36     21      7      6      5 
    37     37     19      4      3     17 
    38     38     26     13     12     14 
    39     39     28     13     12     11 
    40     40     28     13     12     14 
    41     41     16      3      2      1 
    42     42     17      3      2     15 
    43     43     17      3      2      1 
    44     44     22      8      7     21 
    45     45     24     10      5      6 
    46     46     20      6      7      8 
    47     47     19      4      5      6 
    48     48     17      3      2     11 
    49     49     25     11      2      1 
    50     50     18      4      5     10 
    51     51     21      7      8      9 
    52     52     27     13     12     14 
    53     53     11      2      3      4 
    54     54     16      3      2     11 
    55     55     20      6      5     10 
    56     56     22      8      7      6 
    57     57     23      9      8     22 
    58     58      9     10      5      4 
    59     59      9     10      5      6 
    60     60     24     10      9      8 
    61     61     24     10      9     23 
    62     62     24     10      5      4 
    63     63     25     11     12     13 
    64     64     10      5      4      3 

Impropers

     1      1      5     10      4      6 
     2      2      2      1     11      3 
     3      3     12     11     13     14 
     4      4      2      1      3     15 
     5      5      3      2      4     16 
     6      6      3     17      2      4 
     7      7      4     18      3      5 
     8      8      4     19      5      3 
     9      9      6     20      5      7 
    10     10      7     21      6      8 
    11     11      8      9     22      7 
    12     12      9     10     23      8 
    13     13     10      9      5     24 
    14     14     11     25      2     12 
    15     15     13     26     27     12 
    16     16     13     12     26     28 
