LAMMPS data file Created by LigParGen - (Written by Leela S. Dodda)

      34 atoms
      35 bonds
      64 angles
      89 dihedrals
      25 impropers
 
      34 atom types
      35 bond types
      64 angle types
      89 dihedral types
      25 improper types
 
   -6.055990    43.944010 xlo xhi
   -1.222090    48.777910 ylo yhi
   -1.038230    48.961770 zlo zhi

Masses

       1     12.011  
       2     32.060  
       3     14.007  
       4     12.011  
       5     12.011  
       6     15.999  
       7     12.011  
       8     12.011  
       9     12.011  
      10     12.011  
      11     12.011  
      12     12.011  
      13     12.011  
      14     12.011  
      15     12.011  
      16     15.999  
      17     15.999  
      18      1.008  
      19      1.008  
      20      1.008  
      21      1.008  
      22      1.008  
      23      1.008  
      24      1.008  
      25      1.008  
      26      1.008  
      27      1.008  
      28      1.008  
      29      1.008  
      30      1.008  
      31      1.008  
      32      1.008  
      33      1.008  
      34      1.008  

Pair Coeffs 

       1      0.066  3.5000000 
       2      0.250  3.5500000 
       3      0.170  3.2500000 
       4      0.083  3.4500000 
       5      0.083  3.4500000 
       6      0.140  2.9000000 
       7      0.083  3.4500000 
       8      0.066  3.5000000 
       9      0.066  3.5000000 
      10      0.070  3.5500000 
      11      0.070  3.5500000 
      12      0.070  3.5500000 
      13      0.070  3.5500000 
      14      0.070  3.5500000 
      15      0.070  3.5500000 
      16      0.170  2.9600000 
      17      0.170  2.9600000 
      18      0.030  2.5000000 
      19      0.030  2.5000000 
      20      0.030  2.5000000 
      21      0.000  0.0000000 
      22      0.030  2.5000000 
      23      0.030  2.5000000 
      24      0.030  2.5000000 
      25      0.030  2.5000000 
      26      0.030  2.5000000 
      27      0.030  2.5000000 
      28      0.030  2.5000000 
      29      0.030  2.5000000 
      30      0.030  2.4200000 
      31      0.030  2.4200000 
      32      0.030  2.4200000 
      33      0.030  2.4200000 
      34      0.030  2.4200000 

Bond Coeffs 

       1   340.0000     1.7700 
       2   434.0000     1.6700 
       3   337.0000     1.4490 
       4   260.0000     1.5200 
       5   320.0000     1.4100 
       6   260.0000     1.5200 
       7   280.0000     1.5100 
       8   268.0000     1.5290 
       9   317.0000     1.5100 
      10   469.0000     1.4000 
      11   469.0000     1.4000 
      12   469.0000     1.4000 
      13   469.0000     1.4000 
      14   469.0000     1.4000 
      15   700.0000     1.4400 
      16   700.0000     1.4400 
      17   340.0000     1.0900 
      18   340.0000     1.0900 
      19   340.0000     1.0900 
      20   434.0000     1.0100 
      21   340.0000     1.0880 
      22   340.0000     1.0880 
      23   340.0000     1.0880 
      24   340.0000     1.0880 
      25   340.0000     1.0900 
      26   340.0000     1.0900 
      27   340.0000     1.0900 
      28   340.0000     1.0900 
      29   367.0000     1.0800 
      30   367.0000     1.0800 
      31   367.0000     1.0800 
      32   367.0000     1.0800 
      33   367.0000     1.0800 
      34   320.0000     1.4100 
      35   469.0000     1.4000 

Angle Coeffs 

       1    100.000    103.000
       2     50.000    120.000
       3     37.500    126.000
       4     50.000     90.000
       5     37.500    126.000
       6     80.000    109.700
       7     58.350    112.700
       8     63.000    114.000
       9     70.000    120.000
      10     63.000    120.000
      11     63.000    120.000
      12     63.000    120.000
      13     70.000    120.000
      14     74.000    108.900
      15     74.000    108.900
      16     35.000    109.500
      17     35.000    109.500
      18     35.000    109.500
      19    100.000    111.000
      20     37.500    117.200
      21     37.500    117.200
      22     37.500    117.200
      23     37.500    117.200
      24     37.500    110.700
      25     37.500    110.700
      26     37.500    110.700
      27     37.500    110.700
      28     35.000    120.000
      29     35.000    120.000
      30     35.000    120.000
      31     35.000    120.000
      32     35.000    120.000
      33     63.000    120.000
      34     63.000    120.000
      35     35.000    109.500
      36     33.000    107.800
      37     35.000    120.000
      38     35.000    120.000
      39     35.000    109.500
      40     37.500    117.200
      41    120.000    107.000
      42     37.500    117.200
      43     60.000     90.000
      44     37.500    117.200
      45     35.000    114.300
      46     37.500    117.200
      47     30.000     83.000
      48     35.000    120.000
      49    120.000    107.000
      50     37.500    117.200
      51     33.000    107.800
      52     37.500    110.700
      53     35.000    120.000
      54    104.000    119.000
      55     40.000    113.000
      56     50.000     90.000
      57     33.000    107.800
      58     33.000    107.800
      59     37.500    117.200
      60     37.500    110.700
      61     33.000    107.800
      62     35.000    114.300
      63     63.000    120.000
      64     35.000    120.000

Dihedral Coeffs  

       1      2.074     -2.966      2.473      0.000 
       2      2.929     -2.533      0.497      0.000 
       3      0.000      0.000      0.000      0.000 
       4      0.845     -0.962      0.713      0.000 
       5     -1.697     -0.456      0.585      0.000 
       6      0.000      0.000      0.000      0.000 
       7      0.000      7.250      0.000      0.000 
       8      0.000      7.250      0.000      0.000 
       9      0.000      7.250      0.000      0.000 
      10      0.000      0.000      0.000      0.000 
      11      0.000      0.000      0.000      0.000 
      12      0.000      7.250      0.000      0.000 
      13      0.000      0.000      0.300      0.000 
      14      0.000      0.000      0.300      0.000 
      15      0.000      0.000      0.000      0.000 
      16      0.000      0.000      0.000      0.000 
      17      0.000      0.000      0.000      0.000 
      18      0.000      7.250      0.000      0.000 
      19      0.000      0.000      0.000      0.000 
      20      0.000      0.000      0.000      0.000 
      21      0.000      0.000      0.000      0.000 
      22      0.000      0.000      0.000      0.000 
      23      0.000      0.000      0.462      0.000 
      24      0.000      0.000      0.000      0.000 
      25      0.000      0.000      0.000      0.000 
      26      0.000      0.000      0.000      0.000 
      27      0.000      0.000      0.300      0.000 
      28      0.000      0.000      0.000      0.000 
      29      0.000      7.250      0.000      0.000 
      30      0.000      0.000      0.000      0.000 
      31      0.000      0.000      0.000      0.000 
      32      0.000      7.250      0.000      0.000 
      33      0.000      0.000      0.300      0.000 
      34      0.000      0.000      0.300      0.000 
      35      0.000      0.000      0.000      0.000 
      36      0.000      0.000      0.000      0.000 
      37      0.000      0.000      0.300      0.000 
      38      0.000      0.000      0.000      0.000 
      39      0.000      0.000      0.000      0.000 
      40      0.000      7.250      0.000      0.000 
      41      0.000      0.000      0.000      0.000 
      42      0.000      0.000      0.350      0.000 
      43      0.000      0.000      0.000      0.000 
      44      0.000      0.000      0.462      0.000 
      45      0.000      7.250      0.000      0.000 
      46      0.000      0.000      0.000      0.000 
      47      2.929     -2.533      0.497      0.000 
      48      0.000      0.000      0.000      0.000 
      49      0.000      7.250      0.000      0.000 
      50      0.000      0.000      0.000      0.000 
      51      0.000      0.000      0.000      0.000 
      52      0.000      0.000      0.300      0.000 
      53      0.000      7.250      0.000      0.000 
      54      0.000      0.000      0.000      0.000 
      55      2.929     -2.533      0.497      0.000 
      56      0.000      0.000      0.350      0.000 
      57      0.000      0.000      0.000      0.000 
      58      0.000      7.250      0.000      0.000 
      59      0.000      0.000      0.350      0.000 
      60      0.000      0.000      0.000      0.000 
      61      0.000      7.250      0.000      0.000 
      62      0.000      0.000      0.000      0.000 
      63      0.000      7.250      0.000      0.000 
      64      0.000      0.000      0.300      0.000 
      65      0.000      0.000      0.300      0.000 
      66      0.000      0.000      0.000      0.000 
      67      0.000      7.250      0.000      0.000 
      68      0.000      7.250      0.000      0.000 
      69      0.000      0.000      0.000      0.000 
      70      0.000      0.000      0.000      0.000 
      71      0.000      7.250      0.000      0.000 
      72      0.000      0.000      0.300      0.000 
      73      0.000      0.000      0.000      0.000 
      74      0.000      7.250      0.000      0.000 
      75      0.000      0.000      0.000      0.000 
      76      0.000      7.250      0.000      0.000 
      77      0.000      0.000      0.000      0.000 
      78      0.000      7.250      0.000      0.000 
      79      0.000      7.250      0.000      0.000 
      80      0.000      7.250      0.000      0.000 
      81      0.000      0.000      0.000      0.000 
      82      0.000      0.000      0.350      0.000 
      83      0.000      0.000      0.350      0.000 
      84      1.671     -4.901      0.669      0.000 
      85      0.000      7.250      0.000      0.000 
      86      0.000      7.250      0.000      0.000 
      87      0.000      0.000      0.000      0.000 
      88      0.000      0.000      0.350      0.000 
      89      0.000      0.000      0.000      0.000 

Improper Coeffs 

       1      0.000      -1       2 
       2      0.000      -1       2 
       3      2.500      -1       2 
       4      0.000      -1       2 
       5      0.000      -1       2 
       6      0.000      -1       2 
       7      0.000      -1       2 
       8      2.500      -1       2 
       9      0.000      -1       2 
      10      0.000      -1       2 
      11      0.000      -1       2 
      12      0.000      -1       2 
      13      0.000      -1       2 
      14      0.000      -1       2 
      15      0.000      -1       2 
      16      0.000      -1       2 
      17      2.500      -1       2 
      18      2.500      -1       2 
      19      2.500      -1       2 
      20      2.500      -1       2 
      21      2.500      -1       2 
      22      0.000      -1       2 
      23      0.000      -1       2 
      24      0.000      -1       2 
      25      0.000      -1       2 

Atoms 

     1      1      1 -0.57720000    1.000  1.00000  0.00000
     2      1      2 1.57420000   -0.778  1.00000  0.00000
     3      1      3 -1.64510000   -1.103  1.00000  1.66526
     4      1      4 0.36170000   -2.526  0.89805  2.20979
     5      1      5 -0.01290000   -3.351 -0.35315  1.79843
     6      1      6 -0.36200000   -3.779 -0.54828  3.17647
     7      1      7 0.00350000   -2.682  0.28846  3.62652
     8      1      8 -0.19060000   -3.311  2.19961  1.98104
     9      1      9 -0.12600000   -2.637  3.42514  2.60703
    10      1     10 -0.09300000   -3.454  4.66677  2.34662
    11      1     11 -0.14300000   -4.467  5.04946  3.23351
    12      1     12 -0.14850000   -5.270  6.15484  2.94958
    13      1     13 -0.14630000   -5.067  6.88442  1.77943
    14      1     14 -0.14650000   -4.060  6.50942  0.89208
    15      1     15 -0.13470000   -3.255  5.40655  1.17216
    16      1     16 -0.54600000   -1.224  2.27841 -0.50958
    17      1     17 -0.54600000   -1.250 -0.25011 -0.54279
    18      1     18 0.16980000    1.347  1.93168  0.45317
    19      1     19 0.16980000    1.336  0.94868 -1.03823
    20      1     20 0.16980000    1.359  0.13381  0.55632
    21      1     21 0.66340000   -0.556  1.71971  2.14031
    22      1     22 0.13460000   -2.784 -1.22209  1.44963
    23      1     23 0.13460000   -4.198 -0.17411  1.12977
    24      1     24 0.11900000   -1.847 -0.32652  3.97837
    25      1     25 0.11900000   -2.993  0.97179  4.42119
    26      1     26 0.12750000   -4.322  2.10038  2.39809
    27      1     27 0.12750000   -3.452  2.35939  0.90510
    28      1     28 0.09260000   -1.630  3.57901  2.20278
    29      1     29 0.09260000   -2.506  3.28585  3.68704
    30      1     30 0.14660000   -4.637  4.48803  4.14904
    31      1     31 0.14850000   -6.056  6.44542  3.64185
    32      1     32 0.14790000   -5.694  7.74400  1.55992
    33      1     33 0.15060000   -3.901  7.07653 -0.02152
    34      1     34 0.16460000   -2.472  5.12454  0.47007

Bonds 

     1      1      2      1
     2      2      3      2
     3      3      4      3
     4      4      5      4
     5      5      6      5
     6      6      7      4
     7      7      8      4
     8      8      9      8
     9      9     10      9
    10     10     11     10
    11     11     12     11
    12     12     13     12
    13     13     14     13
    14     14     15     10
    15     15     16      2
    16     16     17      2
    17     17     18      1
    18     18     19      1
    19     19     20      1
    20     20     21      3
    21     21     22      5
    22     22     23      5
    23     23     24      7
    24     24     25      7
    25     25     26      8
    26     26     27      8
    27     27     28      9
    28     28     29      9
    29     29     30     11
    30     30     31     12
    31     31     32     13
    32     32     33     14
    33     33     34     15
    34     34      7      6
    35     35     15     14

Angles 

     1      1      1      2      3
     2      2      2      3      4
     3      3      3      4      5
     4      4      4      5      6
     5      5      3      4      7
     6      6      3      4      8
     7      7      4      8      9
     8      8      8      9     10
     9      9      9     10     11
    10     10     10     11     12
    11     11     11     12     13
    12     12     12     13     14
    13     13      9     10     15
    14     14      1      2     16
    15     15      1      2     17
    16     16      2      1     18
    17     17      2      1     19
    18     18      2      1     20
    19     19      2      3     21
    20     20      4      5     22
    21     21      4      5     23
    22     22      4      7     24
    23     23      4      7     25
    24     24      4      8     26
    25     25      4      8     27
    26     26      8      9     28
    27     27      8      9     29
    28     28     10     11     30
    29     29     11     12     31
    30     30     12     13     32
    31     31     13     14     33
    32     32     10     15     34
    33     33     13     14     15
    34     34     11     10     15
    35     35     10      9     28
    36     36     26      8     27
    37     37     13     12     31
    38     38     14     13     32
    39     39     10      9     29
    40     40      6      5     22
    41     41      3      2     17
    42     42      7      4      8
    43     43      5      6      7
    44     44      6      7     25
    45     45     24      7     25
    46     46      6      7     24
    47     47      5      4      7
    48     48     12     11     30
    49     49      3      2     16
    50     50      5      4      8
    51     51     18      1     19
    52     52      9      8     27
    53     53     14     15     34
    54     54     16      2     17
    55     55      4      3     21
    56     56      4      7      6
    57     57     28      9     29
    58     58     18      1     20
    59     59      6      5     23
    60     60      9      8     26
    61     61     19      1     20
    62     62     22      5     23
    63     63     10     15     14
    64     64     15     14     33

Dihedrals

     1      1      4      3      2      1 
     2      2      5      4      3      2 
     3      3      6      5      4      3 
     4      4      9      8      4      3 
     5      5     10      9      8      4 
     6      6     11     10      9      8 
     7      7     12     11     10      9 
     8      8     13     12     11     10 
     9      9     14     13     12     11 
    10     10     18      1      2      3 
    11     11     25      7      4      5 
    12     12     32     13     12     11 
    13     13     29      9      8      4 
    14     14     26      8      4      7 
    15     15     28      9     10     15 
    16     16     19      1      2      3 
    17     17     26      8      4      3 
    18     18     30     11     10      9 
    19     19      9      8      4      5 
    20     20     21      3      4      7 
    21     21      6      7      4      3 
    22     22     24      7      4      8 
    23     23     26      8      9     10 
    24     24     23      5      6      7 
    25     25     24      7      6      5 
    26     26     17      2      3      4 
    27     27     27      8      4      7 
    28     28     16      2      3      4 
    29     29     13     14     15     10 
    30     30     23      5      4      8 
    31     31     15     10      9      8 
    32     32     32     13     12     31 
    33     33     28      9      8     27 
    34     34     29      9      8     26 
    35     35     24      7      4      3 
    36     36     22      5      4      7 
    37     37     26      8      4      5 
    38     38      8      4      5      6 
    39     39     21      3      2     17 
    40     40     30     11     12     13 
    41     41     25      7      4      8 
    42     42     18      1      2     17 
    43     43     22      5      4      3 
    44     44     27      8      9     10 
    45     45     33     14     13     12 
    46     46     29      9     10     11 
    47     47      7      4      3      2 
    48     48     29      9     10     15 
    49     49     33     14     13     32 
    50     50     25      7      6      5 
    51     51     23      5      4      3 
    52     52     28      9      8      4 
    53     53     33     14     15     10 
    54     54     21      3      4      8 
    55     55      8      4      3      2 
    56     56     19      1      2     16 
    57     57      9      8      4      7 
    58     58     34     15     10     11 
    59     59     20      1      2     17 
    60     60      8      4      7      6 
    61     61     15     10     11     12 
    62     62     22      5      6      7 
    63     63     14     15     10      9 
    64     64     28      9      8     26 
    65     65     29      9      8     27 
    66     66     24      7      4      5 
    67     67     34     15     10      9 
    68     68     15     14     13     12 
    69     69     27      8      4      3 
    70     70     23      5      4      7 
    71     71     32     13     14     15 
    72     72     27      8      4      5 
    73     73     22      5      4      8 
    74     74     30     11     10     15 
    75     75     21      3      4      5 
    76     76     34     15     14     13 
    77     77     20      1      2      3 
    78     78     34     15     14     33 
    79     79     14     15     10     11 
    80     80     31     12     11     30 
    81     81     21      3      2     16 
    82     82     19      1      2     17 
    83     83     20      1      2     16 
    84     84     21      3      2      1 
    85     85     31     12     11     10 
    86     86     31     12     13     14 
    87     87     28      9     10     11 
    88     88     18      1      2     16 
    89     89     25      7      4      3 

Impropers

     1      1      4      3      5      7 
     2      2      4      3      5      8 
     3      3     10      9     11     15 
     4      4      2      1      3     16 
     5      5      2     17      3      1 
     6      6      1      2     19     18 
     7      7      1      2     20     18 
     8      8      3      2      4     21 
     9      9      5      4     22      6 
    10     10      5      4      6     23 
    11     11      7      4      6     24 
    12     12      7     25      4      6 
    13     13      8      9     26      4 
    14     14      8      9     27      4 
    15     15      9     10     28      8 
    16     16      9     10     29      8 
    17     17     11     10     12     30 
    18     18     12     11     13     31 
    19     19     13     12     14     32 
    20     20     14     33     13     15 
    21     21     15     34     14     10 
    22     22      4      5      6      7 
    23     23      4      5      6      7 
    24     24      4      5      6      7 
    25     25      4      5      6      7 
