LAMMPS data file Created by LigParGen - (Written by Leela S. Dodda)

      31 atoms
      32 bonds
      53 angles
      69 dihedrals
      17 impropers
 
      31 atom types
      32 bond types
      53 angle types
      69 dihedral types
      17 improper types
 
   -6.002270    43.997730 xlo xhi
   -6.485840    43.514160 ylo yhi
   -1.091840    48.908160 zlo zhi

Masses

       1     15.999  
       2     32.060  
       3     14.007  
       4     12.011  
       5     14.007  
       6     15.999  
       7     12.011  
       8     12.011  
       9     12.011  
      10     12.011  
      11     12.011  
      12     12.011  
      13     12.011  
      14     12.011  
      15     14.007  
      16     12.011  
      17     12.011  
      18     15.999  
      19      1.008  
      20      1.008  
      21      1.008  
      22      1.008  
      23      1.008  
      24      1.008  
      25      1.008  
      26      1.008  
      27      1.008  
      28      1.008  
      29      1.008  
      30      1.008  
      31      1.008  

Pair Coeffs 

       1      0.170  2.9600000 
       2      0.250  3.5500000 
       3      0.170  3.2500000 
       4      0.070  3.5500000 
       5      0.170  3.2500000 
       6      0.140  2.9000000 
       7      0.070  3.5500000 
       8      0.070  3.5500000 
       9      0.070  3.5500000 
      10      0.070  3.5500000 
      11      0.070  3.5500000 
      12      0.070  3.5500000 
      13      0.070  3.5500000 
      14      0.070  3.5500000 
      15      0.170  3.2500000 
      16      0.066  3.5000000 
      17      0.066  3.5000000 
      18      0.170  2.9600000 
      19      0.000  0.0000000 
      20      0.030  2.4200000 
      21      0.030  2.4200000 
      22      0.030  2.4200000 
      23      0.030  2.4200000 
      24      0.030  2.4200000 
      25      0.030  2.4200000 
      26      0.030  2.5000000 
      27      0.030  2.5000000 
      28      0.030  2.5000000 
      29      0.030  2.5000000 
      30      0.030  2.5000000 
      31      0.030  2.5000000 

Bond Coeffs 

       1   700.0000     1.4400 
       2   434.0000     1.6700 
       3   427.0000     1.3810 
       4   410.0000     1.3200 
       5   462.0000     1.3990 
       6   340.0000     1.3600 
       7   385.0000     1.4600 
       8   469.0000     1.4000 
       9   469.0000     1.4000 
      10   469.0000     1.4000 
      11   469.0000     1.4000 
      12   469.0000     1.4000 
      13   469.0000     1.4240 
      14   434.0000     1.6700 
      15   337.0000     1.4490 
      16   337.0000     1.4490 
      17   700.0000     1.4400 
      18   434.0000     1.0100 
      19   367.0000     1.0800 
      20   367.0000     1.0800 
      21   367.0000     1.0800 
      22   367.0000     1.0800 
      23   367.0000     1.0800 
      24   367.0000     1.0800 
      25   340.0000     1.0900 
      26   340.0000     1.0900 
      27   340.0000     1.0900 
      28   340.0000     1.0900 
      29   340.0000     1.0900 
      30   340.0000     1.0900 
      31   546.0000     1.3670 
      32   469.0000     1.4000 

Angle Coeffs 

       1    120.000    107.000
       2     48.370    118.330
       3     56.000    119.440
       4     70.000    105.300
       5     70.000    108.900
       6     70.000    121.600
       7     63.000    120.000
       8     63.000    120.000
       9     63.000    120.000
      10     63.000    120.000
      11     63.000    120.000
      12     56.000    119.440
      13    120.000    107.000
      14     50.000    120.000
      15     50.000    120.000
      16    104.000    119.000
      17    100.000    111.000
      18     35.000    120.000
      19     35.000    120.000
      20     35.000    120.000
      21     35.000    120.000
      22     35.000    120.000
      23     35.000    128.200
      24     35.000    109.500
      25     35.000    109.500
      26     35.000    109.500
      27     35.000    109.500
      28     35.000    109.500
      29     35.000    109.500
      30     35.000    125.700
      31     63.000    120.000
      32     78.670    104.360
      33    120.000    107.000
      34     70.000    103.800
      35     33.000    107.800
      36     33.000    107.800
      37     35.000    120.000
      38     33.000    107.800
      39     35.000    119.800
      40     63.000    120.000
      41     35.000    120.000
      42     33.000    107.800
      43     33.000    107.800
      44     70.000    111.900
      45     35.000    120.000
      46     50.000    118.000
      47     70.000    110.600
      48     70.000    132.100
      49     63.000    120.000
      50    120.000    107.000
      51     35.000    120.000
      52     33.000    107.800
      53     35.000    120.000

Dihedral Coeffs  

       1      0.000      0.000      0.000      0.000 
       2      0.000      2.170      0.000      0.000 
       3      0.000      7.250      0.000      0.000 
       4      0.000      7.250      0.000      0.000 
       5      0.000      5.000      0.000      0.000 
       6      0.000      2.170      0.000      0.000 
       7      0.000      7.250      0.000      0.000 
       8      0.000      7.250      0.000      0.000 
       9      0.000      7.250      0.000      0.000 
      10      0.000      0.000      0.000      0.000 
      11      1.362     -1.457      0.149      0.000 
      12      1.362     -1.457      0.149      0.000 
      13      2.074     -2.966      2.473      0.000 
      14      1.671     -4.901      0.669      0.000 
      15      2.929     -2.533      0.497      0.000 
      16      0.000      7.250      0.000      0.000 
      17      0.000      7.250      0.000      0.000 
      18      0.000      0.000      0.000      0.000 
      19      0.000      2.170      0.000      0.000 
      20      0.000      0.000      0.000      0.000 
      21      0.000      7.250      0.000      0.000 
      22      0.000      0.000      0.000      0.000 
      23      0.000      7.250      0.000      0.000 
      24      0.000      7.250      0.000      0.000 
      25      1.362     -1.457      0.149      0.000 
      26      0.000      7.250      0.000      0.000 
      27      0.000      7.250      0.000      0.000 
      28      0.000      0.000      0.000      0.000 
      29      0.000      7.250      0.000      0.000 
      30      0.000      7.250      0.000      0.000 
      31      0.000      7.250      0.000      0.000 
      32      0.000      2.170      0.000      0.000 
      33      0.000      7.250      0.000      0.000 
      34      0.000      2.170      0.000      0.000 
      35      2.074     -2.966      2.473      0.000 
      36      0.000      2.170      0.000      0.000 
      37      0.000      4.900      0.000      0.000 
      38      0.000      7.250      0.000      0.000 
      39      2.074     -2.966      2.473      0.000 
      40      0.000      7.250      0.000      0.000 
      41      0.000      0.000      0.000      0.000 
      42      0.000      7.250      0.000      0.000 
      43      0.000      2.100      0.000      0.000 
      44      0.000      7.250      0.000      0.000 
      45      0.000      0.000      0.000      0.000 
      46      0.000      0.000      0.000      0.000 
      47      0.000      0.000      0.000      0.000 
      48      0.000      7.250      0.000      0.000 
      49      0.000      7.250      0.000      0.000 
      50      1.362     -1.457      0.149      0.000 
      51      0.000      7.250      0.000      0.000 
      52      0.000      0.000      0.000      0.000 
      53      0.000      7.250      0.000      0.000 
      54      0.000      1.100      0.000      0.000 
      55      0.000      7.250      0.000      0.000 
      56      0.000      7.250      0.000      0.000 
      57      0.000      7.250      0.000      0.000 
      58      0.000      0.000      0.000      0.000 
      59      0.000      7.250      0.000      0.000 
      60      0.000      0.000      0.000      0.000 
      61      1.362     -1.457      0.149      0.000 
      62      1.362     -1.457      0.149      0.000 
      63      0.000      7.250      0.000      0.000 
      64      0.000      7.250      0.000      0.000 
      65      0.000      0.000      0.000      0.000 
      66      0.000      7.250      0.000      0.000 
      67      0.000      7.250      0.000      0.000 
      68      0.000      5.000      0.000      0.000 
      69      0.000      7.250      0.000      0.000 

Improper Coeffs 

       1      2.500      -1       2 
       2      2.500      -1       2 
       3      0.000      -1       2 
       4      2.500      -1       2 
       5      0.000      -1       2 
       6      2.500      -1       2 
       7      2.500      -1       2 
       8      2.500      -1       2 
       9      2.500      -1       2 
      10      2.500      -1       2 
      11      2.500      -1       2 
      12      2.500      -1       2 
      13      0.000      -1       2 
      14      0.000      -1       2 
      15      0.000      -1       2 
      16      0.000      -1       2 
      17      2.500      -1       2 

Atoms 

     1      1      1 -0.50480000    1.000  1.00000  0.00000
     2      1      2 1.76770000   -0.443  1.00000  0.00000
     3      1      3 -1.42980000   -0.930  1.00000  1.61491
     4      1      4 0.48940000   -1.141 -0.26052  2.17548
     5      1      5 -0.30410000   -0.221 -0.82205  2.95882
     6      1      6 -0.02990000   -0.778 -2.01853  3.38011
     7      1      7 0.12510000   -2.055 -2.12014  2.90840
     8      1      8 -0.05270000   -2.815 -3.27477  3.36683
     9      1      9 -0.10690000   -4.200 -3.17720  3.56373
    10      1     10 -0.15460000   -4.929 -4.26421  4.05582
    11      1     11 -0.12090000   -4.281 -5.45980  4.35598
    12      1     12 -0.15320000   -2.905 -5.56863  4.16456
    13      1     13 -0.09610000   -2.184 -4.50179  3.62183
    14      1     14 -0.23960000   -2.322 -1.02624  2.11746
    15      1     15 -1.40530000   -0.958  2.54132 -0.46404
    16      1     16 0.21110000   -2.410  2.75582 -0.53035
    17      1     17 0.21080000   -0.199  3.69540  0.03485
    18      1     18 -0.50480000   -1.217  0.02972 -0.73589
    19      1     19 0.63110000   -0.159  1.44501  2.11352
    20      1     20 0.15600000   -4.727 -2.25313  3.33723
    21      1     21 0.15740000   -6.002 -4.17511  4.20503
    22      1     22 0.15510000   -4.847 -6.30477  4.73978
    23      1     23 0.15900000   -2.390 -6.48584  4.43910
    24      1     24 0.16870000   -1.128 -4.63521  3.39828
    25      1     25 0.21430000   -3.232 -0.81087  1.57976
    26      1     26 0.11020000   -2.899  1.95491 -1.09184
    27      1     27 0.11020000   -2.624  3.68885 -1.06117
    28      1     28 0.11020000   -2.842  2.81615  0.47223
    29      1     29 0.10880000    0.872  3.56881 -0.14784
    30      1     30 0.10880000   -0.374  3.84902  1.10294
    31      1     31 0.10880000   -0.502  4.60049 -0.50243

Bonds 

     1      1      2      1
     2      2      3      2
     3      3      4      3
     4      4      5      4
     5      5      6      5
     6      6      7      6
     7      7      8      7
     8      8      9      8
     9      9     10      9
    10     10     11     10
    11     11     12     11
    12     12     13      8
    13     13     14      4
    14     14     15      2
    15     15     16     15
    16     16     17     15
    17     17     18      2
    18     18     19      3
    19     19     20      9
    20     20     21     10
    21     21     22     11
    22     22     23     12
    23     23     24     13
    24     24     25     14
    25     25     26     16
    26     26     27     16
    27     27     28     16
    28     28     29     17
    29     29     30     17
    30     30     31     17
    31     31     14      7
    32     32     13     12

Angles 

     1      1      1      2      3
     2      2      2      3      4
     3      3      3      4      5
     4      4      4      5      6
     5      5      5      6      7
     6      6      6      7      8
     7      7      7      8      9
     8      8      8      9     10
     9      9      9     10     11
    10     10     10     11     12
    11     11      7      8     13
    12     12      3      4     14
    13     13      1      2     15
    14     14      2     15     16
    15     15      2     15     17
    16     16      1      2     18
    17     17      2      3     19
    18     18      8      9     20
    19     19      9     10     21
    20     20     10     11     22
    21     21     11     12     23
    22     22      8     13     24
    23     23      4     14     25
    24     24     15     16     26
    25     25     15     16     27
    26     26     15     16     28
    27     27     15     17     29
    28     28     15     17     30
    29     29     15     17     31
    30     30      7     14     25
    31     31      8     13     12
    32     32      3      2     15
    33     33      3      2     18
    34     34      4     14      7
    35     35     29     17     31
    36     36     30     17     31
    37     37     13     12     23
    38     38     26     16     27
    39     39      4      3     19
    40     40      9      8     13
    41     41     12     13     24
    42     42     27     16     28
    43     43     26     16     28
    44     44      5      4     14
    45     45     12     11     22
    46     46     16     15     17
    47     47      6      7     14
    48     48      8      7     14
    49     49     11     12     13
    50     50     15      2     18
    51     51     11     10     21
    52     52     29     17     30
    53     53     10      9     20

Dihedrals

     1      1      4      3      2      1 
     2      2      5      4      3      2 
     3      3      6      5      4      3 
     4      4      7      6      5      4 
     5      5      8      7      6      5 
     6      6      9      8      7      6 
     7      7     10      9      8      7 
     8      8     11     10      9      8 
     9      9     12     11     10      9 
    10     10     16     15      2      1 
    11     11     26     16     15      2 
    12     12     29     17     15      2 
    13     13     15      2      3      4 
    14     14     19      3      2     15 
    15     15     14      4      3      2 
    16     16     21     10      9     20 
    17     17     24     13      8      9 
    18     18     19      3      2      1 
    19     19     13      8      7      6 
    20     20     28     16     15     17 
    21     21     22     11     10      9 
    22     22     19      3      2     18 
    23     23     23     12     11     22 
    24     24     20      9      8     13 
    25     25     27     16     15      2 
    26     26     11     12     13      8 
    27     27     24     13     12     23 
    28     28     18      2     15     16 
    29     29     13     12     11     10 
    30     30      6      7     14      4 
    31     31     22     11     10     21 
    32     32      7     14      4      5 
    33     33     24     13     12     11 
    34     34     14      7      8     13 
    35     35     17     15      2      3 
    36     36     14      7      8      9 
    37     37     19      3      4     14 
    38     38     25     14      4      5 
    39     39     16     15      2      3 
    40     40      8      7     14      4 
    41     41     30     17     15     16 
    42     42     20      9      8      7 
    43     43     19      3      4      5 
    44     44     23     12     13      8 
    45     45     31     17     15     16 
    46     46     18      2      3      4 
    47     47     26     16     15     17 
    48     48     21     10     11     12 
    49     49     25     14      7      6 
    50     50     31     17     15      2 
    51     51     22     11     12     13 
    52     52     17     15      2      1 
    53     53     25     14      7      8 
    54     54      7     14      4      3 
    55     55     21     10      9      8 
    56     56     13      8      9     10 
    57     57     12     13      8      9 
    58     58     29     17     15     16 
    59     59     25     14      4      3 
    60     60     18      2     15     17 
    61     61     30     17     15      2 
    62     62     28     16     15      2 
    63     63     24     13      8      7 
    64     64     23     12     11     10 
    65     65     27     16     15     17 
    66     66     12     13      8      7 
    67     67     20      9     10     11 
    68     68     14      7      6      5 
    69     69     14      4      5      6 

Impropers

     1      1      8      9     13      7 
     2      2      4      3      5     14 
     3      3      2      1      3     15 
     4      4     15     17      2     16 
     5      5      2      1     18      3 
     6      6      3      2     19      4 
     7      7      9     10     20      8 
     8      8     10      9     11     21 
     9      9     11     10     12     22 
    10     10     12     11     13     23 
    11     11     13     12      8     24 
    12     12     14     25      4      7 
    13     13     16     26     27     15 
    14     14     16     26     28     15 
    15     15     17     29     30     15 
    16     16     17     29     15     31 
    17     17      7      6     14      8 
