LAMMPS data file Created by LigParGen - (Written by Leela S. Dodda)

      34 atoms
      35 bonds
      64 angles
      89 dihedrals
      25 impropers
 
      34 atom types
      35 bond types
      64 angle types
      89 dihedral types
      25 improper types
 
   -7.969770    42.030230 xlo xhi
   -1.350620    48.649380 ylo yhi
   -1.150950    48.849050 zlo zhi

Masses

       1     12.011  
       2     32.060  
       3     14.007  
       4     12.011  
       5     12.011  
       6     32.060  
       7     12.011  
       8     12.011  
       9     12.011  
      10     12.011  
      11     12.011  
      12     12.011  
      13     12.011  
      14     12.011  
      15     12.011  
      16     15.999  
      17     15.999  
      18      1.008  
      19      1.008  
      20      1.008  
      21      1.008  
      22      1.008  
      23      1.008  
      24      1.008  
      25      1.008  
      26      1.008  
      27      1.008  
      28      1.008  
      29      1.008  
      30      1.008  
      31      1.008  
      32      1.008  
      33      1.008  
      34      1.008  

Pair Coeffs 

       1      0.066  3.5000000 
       2      0.250  3.5500000 
       3      0.170  3.2500000 
       4      0.083  3.4500000 
       5      0.083  3.4500000 
       6      0.355  3.6000000 
       7      0.083  3.4500000 
       8      0.066  3.5000000 
       9      0.066  3.5000000 
      10      0.070  3.5500000 
      11      0.070  3.5500000 
      12      0.070  3.5500000 
      13      0.070  3.5500000 
      14      0.070  3.5500000 
      15      0.070  3.5500000 
      16      0.170  2.9600000 
      17      0.170  2.9600000 
      18      0.030  2.5000000 
      19      0.030  2.5000000 
      20      0.030  2.5000000 
      21      0.000  0.0000000 
      22      0.030  2.5000000 
      23      0.030  2.5000000 
      24      0.030  2.5000000 
      25      0.030  2.5000000 
      26      0.030  2.5000000 
      27      0.030  2.5000000 
      28      0.030  2.5000000 
      29      0.030  2.5000000 
      30      0.030  2.4200000 
      31      0.030  2.4200000 
      32      0.030  2.4200000 
      33      0.030  2.4200000 
      34      0.030  2.4200000 

Bond Coeffs 

       1   340.0000     1.7700 
       2   434.0000     1.6700 
       3   337.0000     1.4490 
       4   260.0000     1.5200 
       5   222.0000     1.8100 
       6   260.0000     1.5200 
       7   280.0000     1.5100 
       8   268.0000     1.5290 
       9   317.0000     1.5100 
      10   469.0000     1.4000 
      11   469.0000     1.4000 
      12   469.0000     1.4000 
      13   469.0000     1.4000 
      14   469.0000     1.4000 
      15   700.0000     1.4400 
      16   700.0000     1.4400 
      17   340.0000     1.0900 
      18   340.0000     1.0900 
      19   340.0000     1.0900 
      20   434.0000     1.0100 
      21   340.0000     1.0880 
      22   340.0000     1.0880 
      23   340.0000     1.0880 
      24   340.0000     1.0880 
      25   340.0000     1.0900 
      26   340.0000     1.0900 
      27   340.0000     1.0900 
      28   340.0000     1.0900 
      29   367.0000     1.0800 
      30   367.0000     1.0800 
      31   367.0000     1.0800 
      32   367.0000     1.0800 
      33   367.0000     1.0800 
      34   222.0000     1.8100 
      35   469.0000     1.4000 

Angle Coeffs 

       1    100.000    103.000
       2     50.000    120.000
       3     37.500    126.000
       4     55.000    128.000
       5     37.500    126.000
       6     80.000    109.700
       7     58.350    112.700
       8     63.000    114.000
       9     70.000    120.000
      10     63.000    120.000
      11     63.000    120.000
      12     63.000    120.000
      13     70.000    120.000
      14     74.000    108.900
      15     74.000    108.900
      16     35.000    109.500
      17     35.000    109.500
      18     35.000    109.500
      19    100.000    111.000
      20     37.500    117.200
      21     37.500    117.200
      22     37.500    117.200
      23     37.500    117.200
      24     37.500    110.700
      25     37.500    110.700
      26     37.500    110.700
      27     37.500    110.700
      28     35.000    120.000
      29     35.000    120.000
      30     35.000    120.000
      31     35.000    120.000
      32     35.000    120.000
      33     63.000    120.000
      34     63.000    120.000
      35     35.000    109.500
      36     33.000    107.800
      37     35.000    120.000
      38     35.000    120.000
      39     35.000    109.500
      40     37.500    108.000
      41    120.000    107.000
      42     37.500    117.200
      43     62.000     94.000
      44     37.500    108.000
      45     35.000    114.300
      46     37.500    108.000
      47     30.000     83.000
      48     35.000    120.000
      49    120.000    107.000
      50     37.500    117.200
      51     33.000    107.800
      52     37.500    110.700
      53     35.000    120.000
      54    104.000    119.000
      55     40.000    113.000
      56     55.000    128.000
      57     33.000    107.800
      58     33.000    107.800
      59     37.500    108.000
      60     37.500    110.700
      61     33.000    107.800
      62     35.000    114.300
      63     63.000    120.000
      64     35.000    120.000

Dihedral Coeffs  

       1      2.074     -2.966      2.473      0.000 
       2      2.929     -2.533      0.497      0.000 
       3      0.000      0.000      0.000      0.000 
       4      0.845     -0.962      0.713      0.000 
       5     -1.697     -0.456      0.585      0.000 
       6      0.000      0.000      0.000      0.000 
       7      0.000      7.250      0.000      0.000 
       8      0.000      7.250      0.000      0.000 
       9      0.000      7.250      0.000      0.000 
      10      0.000      0.000      0.000      0.000 
      11      0.000      0.000      0.000      0.000 
      12      0.000      7.250      0.000      0.000 
      13      0.000      0.000      0.300      0.000 
      14      0.000      0.000      0.300      0.000 
      15      0.000      0.000      0.000      0.000 
      16      0.000      0.000      0.000      0.000 
      17      0.000      0.000      0.000      0.000 
      18      0.000      7.250      0.000      0.000 
      19      0.000      0.000      0.000      0.000 
      20      0.000      0.000      0.000      0.000 
      21      0.000      0.000      0.000      0.000 
      22      0.000      0.000      0.000      0.000 
      23      0.000      0.000      0.462      0.000 
      24      0.000      0.000      0.647      0.000 
      25      0.000      0.000      0.647      0.000 
      26      0.000      0.000      0.000      0.000 
      27      0.000      0.000      0.300      0.000 
      28      0.000      0.000      0.000      0.000 
      29      0.000      7.250      0.000      0.000 
      30      0.000      0.000      0.000      0.000 
      31      0.000      0.000      0.000      0.000 
      32      0.000      7.250      0.000      0.000 
      33      0.000      0.000      0.300      0.000 
      34      0.000      0.000      0.300      0.000 
      35      0.000      0.000      0.000      0.000 
      36      0.000      0.000      0.000      0.000 
      37      0.000      0.000      0.300      0.000 
      38      0.000      0.000      0.000      0.000 
      39      0.000      0.000      0.000      0.000 
      40      0.000      7.250      0.000      0.000 
      41      0.000      0.000      0.000      0.000 
      42      0.000      0.000      0.350      0.000 
      43      0.000      0.000      0.000      0.000 
      44      0.000      0.000      0.462      0.000 
      45      0.000      7.250      0.000      0.000 
      46      0.000      0.000      0.000      0.000 
      47      2.929     -2.533      0.497      0.000 
      48      0.000      0.000      0.000      0.000 
      49      0.000      7.250      0.000      0.000 
      50      0.000      0.000      0.647      0.000 
      51      0.000      0.000      0.000      0.000 
      52      0.000      0.000      0.300      0.000 
      53      0.000      7.250      0.000      0.000 
      54      0.000      0.000      0.000      0.000 
      55      2.929     -2.533      0.497      0.000 
      56      0.000      0.000      0.350      0.000 
      57      0.000      0.000      0.000      0.000 
      58      0.000      7.250      0.000      0.000 
      59      0.000      0.000      0.350      0.000 
      60      0.000      0.000      0.000      0.000 
      61      0.000      7.250      0.000      0.000 
      62      0.000      0.000      0.647      0.000 
      63      0.000      7.250      0.000      0.000 
      64      0.000      0.000      0.300      0.000 
      65      0.000      0.000      0.300      0.000 
      66      0.000      0.000      0.000      0.000 
      67      0.000      7.250      0.000      0.000 
      68      0.000      7.250      0.000      0.000 
      69      0.000      0.000      0.000      0.000 
      70      0.000      0.000      0.000      0.000 
      71      0.000      7.250      0.000      0.000 
      72      0.000      0.000      0.300      0.000 
      73      0.000      0.000      0.000      0.000 
      74      0.000      7.250      0.000      0.000 
      75      0.000      0.000      0.000      0.000 
      76      0.000      7.250      0.000      0.000 
      77      0.000      0.000      0.000      0.000 
      78      0.000      7.250      0.000      0.000 
      79      0.000      7.250      0.000      0.000 
      80      0.000      7.250      0.000      0.000 
      81      0.000      0.000      0.000      0.000 
      82      0.000      0.000      0.350      0.000 
      83      0.000      0.000      0.350      0.000 
      84      1.671     -4.901      0.669      0.000 
      85      0.000      7.250      0.000      0.000 
      86      0.000      7.250      0.000      0.000 
      87      0.000      0.000      0.000      0.000 
      88      0.000      0.000      0.350      0.000 
      89      0.000      0.000      0.000      0.000 

Improper Coeffs 

       1      0.000      -1       2 
       2      0.000      -1       2 
       3      2.500      -1       2 
       4      0.000      -1       2 
       5      0.000      -1       2 
       6      0.000      -1       2 
       7      0.000      -1       2 
       8      2.500      -1       2 
       9      0.000      -1       2 
      10      0.000      -1       2 
      11      0.000      -1       2 
      12      0.000      -1       2 
      13      0.000      -1       2 
      14      0.000      -1       2 
      15      0.000      -1       2 
      16      0.000      -1       2 
      17      2.500      -1       2 
      18      2.500      -1       2 
      19      2.500      -1       2 
      20      2.500      -1       2 
      21      2.500      -1       2 
      22     -0.288      -1       2 
      23      0.000      -1       2 
      24      0.000      -1       2 
      25     -0.288      -1       2 

Atoms 

     1      1      1 -0.58060000    1.000  1.00000  0.00000
     2      1      2 1.55810000   -0.774  1.00000  0.00000
     3      1      3 -1.61070000   -1.094  1.00000  1.67558
     4      1      4 0.43840000   -2.550  1.08532  2.26089
     5      1      5 -0.16800000   -2.509  1.19765  3.83207
     6      1      6 -0.18580000   -3.609  2.62974  3.85105
     7      1      7 -0.18620000   -3.149  2.53894  2.10052
     8      1      8 -0.16040000   -3.324 -0.14502  1.71923
     9      1      9 -0.12340000   -4.765 -0.36926  2.20160
    10      1     10 -0.09420000   -5.764  0.64524  1.70318
    11      1     11 -0.14960000   -5.893  0.93176  0.33610
    12      1     12 -0.14920000   -6.697  1.98961 -0.08984
    13      1     13 -0.15010000   -7.378  2.76791  0.84430
    14      1     14 -0.14850000   -7.296  2.45554  2.19839
    15      1     15 -0.12530000   -6.545  1.36029  2.62015
    16      1     16 -0.54930000   -1.238  2.27093 -0.50660
    17      1     17 -0.54930000   -1.217 -0.26129 -0.55255
    18      1     18 0.17050000    1.352  1.92900  0.45315
    19      1     19 0.17050000    1.335  0.94030 -1.03838
    20      1     20 0.17050000    1.354  0.12989  0.55604
    21      1     21 0.64180000   -0.528  1.73995  2.10289
    22      1     22 0.13540000   -1.520  1.44081  4.23578
    23      1     23 0.13540000   -2.872  0.32132  4.37712
    24      1     24 0.15040000   -2.403  3.30174  1.84785
    25      1     25 0.15040000   -3.959  2.65261  1.37806
    26      1     26 0.12180000   -2.754 -1.04374  1.99101
    27      1     27 0.12180000   -3.344 -0.10986  0.62694
    28      1     28 0.10530000   -4.791 -0.43385  3.29470
    29      1     29 0.10530000   -5.099 -1.35062  1.83713
    30      1     30 0.15190000   -5.336  0.36233 -0.40553
    31      1     31 0.15080000   -6.790  2.20468 -1.15095
    32      1     32 0.14790000   -7.970  3.61775  0.51581
    33      1     33 0.15040000   -7.782  3.08848  2.93579
    34      1     34 0.15380000   -6.516  1.11325  3.67956

Bonds 

     1      1      2      1
     2      2      3      2
     3      3      4      3
     4      4      5      4
     5      5      6      5
     6      6      7      4
     7      7      8      4
     8      8      9      8
     9      9     10      9
    10     10     11     10
    11     11     12     11
    12     12     13     12
    13     13     14     13
    14     14     15     10
    15     15     16      2
    16     16     17      2
    17     17     18      1
    18     18     19      1
    19     19     20      1
    20     20     21      3
    21     21     22      5
    22     22     23      5
    23     23     24      7
    24     24     25      7
    25     25     26      8
    26     26     27      8
    27     27     28      9
    28     28     29      9
    29     29     30     11
    30     30     31     12
    31     31     32     13
    32     32     33     14
    33     33     34     15
    34     34      7      6
    35     35     15     14

Angles 

     1      1      1      2      3
     2      2      2      3      4
     3      3      3      4      5
     4      4      4      5      6
     5      5      3      4      7
     6      6      3      4      8
     7      7      4      8      9
     8      8      8      9     10
     9      9      9     10     11
    10     10     10     11     12
    11     11     11     12     13
    12     12     12     13     14
    13     13      9     10     15
    14     14      1      2     16
    15     15      1      2     17
    16     16      2      1     18
    17     17      2      1     19
    18     18      2      1     20
    19     19      2      3     21
    20     20      4      5     22
    21     21      4      5     23
    22     22      4      7     24
    23     23      4      7     25
    24     24      4      8     26
    25     25      4      8     27
    26     26      8      9     28
    27     27      8      9     29
    28     28     10     11     30
    29     29     11     12     31
    30     30     12     13     32
    31     31     13     14     33
    32     32     10     15     34
    33     33     13     14     15
    34     34     11     10     15
    35     35     10      9     28
    36     36     26      8     27
    37     37     13     12     31
    38     38     14     13     32
    39     39     10      9     29
    40     40      6      5     22
    41     41      3      2     17
    42     42      7      4      8
    43     43      5      6      7
    44     44      6      7     25
    45     45     24      7     25
    46     46      6      7     24
    47     47      5      4      7
    48     48     12     11     30
    49     49      3      2     16
    50     50      5      4      8
    51     51     18      1     19
    52     52      9      8     27
    53     53     14     15     34
    54     54     16      2     17
    55     55      4      3     21
    56     56      4      7      6
    57     57     28      9     29
    58     58     18      1     20
    59     59      6      5     23
    60     60      9      8     26
    61     61     19      1     20
    62     62     22      5     23
    63     63     10     15     14
    64     64     15     14     33

Dihedrals

     1      1      4      3      2      1 
     2      2      5      4      3      2 
     3      3      6      5      4      3 
     4      4      9      8      4      3 
     5      5     10      9      8      4 
     6      6     11     10      9      8 
     7      7     12     11     10      9 
     8      8     13     12     11     10 
     9      9     14     13     12     11 
    10     10     18      1      2      3 
    11     11     25      7      4      5 
    12     12     32     13     12     11 
    13     13     29      9      8      4 
    14     14     26      8      4      7 
    15     15     28      9     10     15 
    16     16     19      1      2      3 
    17     17     26      8      4      3 
    18     18     30     11     10      9 
    19     19      9      8      4      5 
    20     20     21      3      4      7 
    21     21      6      7      4      3 
    22     22     24      7      4      8 
    23     23     26      8      9     10 
    24     24     23      5      6      7 
    25     25     24      7      6      5 
    26     26     17      2      3      4 
    27     27     27      8      4      7 
    28     28     16      2      3      4 
    29     29     13     14     15     10 
    30     30     23      5      4      8 
    31     31     15     10      9      8 
    32     32     32     13     12     31 
    33     33     28      9      8     27 
    34     34     29      9      8     26 
    35     35     24      7      4      3 
    36     36     22      5      4      7 
    37     37     26      8      4      5 
    38     38      8      4      5      6 
    39     39     21      3      2     17 
    40     40     30     11     12     13 
    41     41     25      7      4      8 
    42     42     18      1      2     17 
    43     43     22      5      4      3 
    44     44     27      8      9     10 
    45     45     33     14     13     12 
    46     46     29      9     10     11 
    47     47      7      4      3      2 
    48     48     29      9     10     15 
    49     49     33     14     13     32 
    50     50     25      7      6      5 
    51     51     23      5      4      3 
    52     52     28      9      8      4 
    53     53     33     14     15     10 
    54     54     21      3      4      8 
    55     55      8      4      3      2 
    56     56     19      1      2     16 
    57     57      9      8      4      7 
    58     58     34     15     10     11 
    59     59     20      1      2     17 
    60     60      8      4      7      6 
    61     61     15     10     11     12 
    62     62     22      5      6      7 
    63     63     14     15     10      9 
    64     64     28      9      8     26 
    65     65     29      9      8     27 
    66     66     24      7      4      5 
    67     67     34     15     10      9 
    68     68     15     14     13     12 
    69     69     27      8      4      3 
    70     70     23      5      4      7 
    71     71     32     13     14     15 
    72     72     27      8      4      5 
    73     73     22      5      4      8 
    74     74     30     11     10     15 
    75     75     21      3      4      5 
    76     76     34     15     14     13 
    77     77     20      1      2      3 
    78     78     34     15     14     33 
    79     79     14     15     10     11 
    80     80     31     12     11     30 
    81     81     21      3      2     16 
    82     82     19      1      2     17 
    83     83     20      1      2     16 
    84     84     21      3      2      1 
    85     85     31     12     11     10 
    86     86     31     12     13     14 
    87     87     28      9     10     11 
    88     88     18      1      2     16 
    89     89     25      7      4      3 

Impropers

     1      1      4      3      5      7 
     2      2      4      3      5      8 
     3      3     10      9     11     15 
     4      4      2      1      3     16 
     5      5      2     17      3      1 
     6      6      1      2     19     18 
     7      7      1      2     20     18 
     8      8      3      2      4     21 
     9      9      5      4     22      6 
    10     10      5      4      6     23 
    11     11      7      4      6     24 
    12     12      7     25      4      6 
    13     13      8      9     26      4 
    14     14      8      9     27      4 
    15     15      9     10     28      8 
    16     16      9     10     29      8 
    17     17     11     10     12     30 
    18     18     12     11     13     31 
    19     19     13     12     14     32 
    20     20     14     33     13     15 
    21     21     15     34     14     10 
    22     22      4      5      6      7 
    23     23      4      5      6      7 
    24     24      4      5      6      7 
    25     25      4      5      6      7 
