LAMMPS data file Created by LigParGen - (Written by Leela S. Dodda)

      41 atoms
      42 bonds
      78 angles
     110 dihedrals
      30 impropers
 
      41 atom types
      42 bond types
      78 angle types
     110 dihedral types
      30 improper types
 
   -4.716400    45.283600 xlo xhi
   -3.147840    46.852160 ylo yhi
   -2.446230    47.553770 zlo zhi

Masses

       1     15.999  
       2     32.060  
       3     14.007  
       4     12.011  
       5     12.011  
       6     32.060  
       7     12.011  
       8     15.999  
       9     15.999  
      10     12.011  
      11     12.011  
      12     12.011  
      13     12.011  
      14     12.011  
      15     12.011  
      16     12.011  
      17     12.011  
      18     14.007  
      19     12.011  
      20     12.011  
      21     15.999  
      22      1.008  
      23      1.008  
      24      1.008  
      25      1.008  
      26      1.008  
      27      1.008  
      28      1.008  
      29      1.008  
      30      1.008  
      31      1.008  
      32      1.008  
      33      1.008  
      34      1.008  
      35      1.008  
      36      1.008  
      37      1.008  
      38      1.008  
      39      1.008  
      40      1.008  
      41      1.008  

Pair Coeffs 

       1      0.170  2.9600000 
       2      0.250  3.5500000 
       3      0.170  3.2500000 
       4      0.083  3.4500000 
       5      0.083  3.4500000 
       6      0.250  3.5500000 
       7      0.083  3.4500000 
       8      0.170  2.9600000 
       9      0.170  2.9600000 
      10      0.066  3.5000000 
      11      0.066  3.5000000 
      12      0.070  3.5500000 
      13      0.070  3.5500000 
      14      0.070  3.5500000 
      15      0.070  3.5500000 
      16      0.070  3.5500000 
      17      0.070  3.5500000 
      18      0.170  3.2500000 
      19      0.066  3.5000000 
      20      0.066  3.5000000 
      21      0.170  2.9600000 
      22      0.000  0.0000000 
      23      0.030  2.5000000 
      24      0.030  2.5000000 
      25      0.030  2.5000000 
      26      0.030  2.5000000 
      27      0.030  2.5000000 
      28      0.030  2.5000000 
      29      0.030  2.5000000 
      30      0.030  2.5000000 
      31      0.030  2.4200000 
      32      0.030  2.4200000 
      33      0.030  2.4200000 
      34      0.030  2.4200000 
      35      0.030  2.4200000 
      36      0.030  2.5000000 
      37      0.030  2.5000000 
      38      0.030  2.5000000 
      39      0.030  2.5000000 
      40      0.030  2.5000000 
      41      0.030  2.5000000 

Bond Coeffs 

       1   700.0000     1.4400 
       2   434.0000     1.6700 
       3   337.0000     1.4490 
       4   260.0000     1.5200 
       5   222.0000     1.8100 
       6   260.0000     1.5200 
       7   700.0000     1.4400 
       8   700.0000     1.4400 
       9   280.0000     1.5100 
      10   268.0000     1.5290 
      11   317.0000     1.5100 
      12   469.0000     1.4000 
      13   469.0000     1.4000 
      14   469.0000     1.4000 
      15   469.0000     1.4000 
      16   469.0000     1.4000 
      17   434.0000     1.6700 
      18   337.0000     1.4490 
      19   337.0000     1.4490 
      20   700.0000     1.4400 
      21   434.0000     1.0100 
      22   340.0000     1.0880 
      23   340.0000     1.0880 
      24   340.0000     1.0880 
      25   340.0000     1.0880 
      26   340.0000     1.0900 
      27   340.0000     1.0900 
      28   340.0000     1.0900 
      29   340.0000     1.0900 
      30   367.0000     1.0800 
      31   367.0000     1.0800 
      32   367.0000     1.0800 
      33   367.0000     1.0800 
      34   367.0000     1.0800 
      35   340.0000     1.0900 
      36   340.0000     1.0900 
      37   340.0000     1.0900 
      38   340.0000     1.0900 
      39   340.0000     1.0900 
      40   340.0000     1.0900 
      41   340.0000     1.7700 
      42   469.0000     1.4000 

Angle Coeffs 

       1    120.000    107.000
       2     50.000    120.000
       3     37.500    126.000
       4     55.000    128.000
       5     37.500    126.000
       6     74.000    108.900
       7     74.000    108.900
       8     80.000    109.700
       9     58.350    112.700
      10     63.000    114.000
      11     70.000    120.000
      12     63.000    120.000
      13     63.000    120.000
      14     63.000    120.000
      15     70.000    120.000
      16    120.000    107.000
      17     50.000    120.000
      18     50.000    120.000
      19    104.000    119.000
      20    100.000    111.000
      21     37.500    117.200
      22     37.500    117.200
      23     37.500    117.200
      24     37.500    117.200
      25     37.500    110.700
      26     37.500    110.700
      27     37.500    110.700
      28     37.500    110.700
      29     35.000    120.000
      30     35.000    120.000
      31     35.000    120.000
      32     35.000    120.000
      33     35.000    120.000
      34     35.000    109.500
      35     35.000    109.500
      36     35.000    109.500
      37     35.000    109.500
      38     35.000    109.500
      39     35.000    109.500
      40     33.000    107.800
      41    120.000    107.000
      42     35.000    120.000
      43     37.500    110.700
      44     37.500    108.000
      45     74.000    108.900
      46     35.000    120.000
      47     78.670    104.360
      48    120.000    107.000
      49     33.000    107.800
      50     37.500    108.000
      51     50.000    118.000
      52     33.000    107.800
      53     33.000    107.800
      54     40.000    113.000
      55     62.000    102.000
      56     37.500    108.000
      57     37.500    117.200
      58     35.000    109.500
      59     63.000    120.000
      60     33.000    107.800
      61     35.000    120.000
      62     35.000    114.300
      63     74.000    108.900
      64     35.000    120.000
      65     55.000    128.000
      66     63.000    120.000
      67     37.500    117.200
      68     37.500    110.700
      69    104.000    119.000
      70     37.500    108.000
      71     63.000    120.000
      72     35.000    114.300
      73     35.000    120.000
      74     30.000     83.000
      75     33.000    107.800
      76     35.000    109.500
      77     33.000    107.800
      78     33.000    107.800

Dihedral Coeffs  

       1      0.000      0.000      0.000      0.000 
       2      2.929     -2.533      0.497      0.000 
       3      0.000      0.000      0.000      0.000 
       4      0.845     -0.962      0.713      0.000 
       5     -1.697     -0.456      0.585      0.000 
       6      0.000      0.000      0.000      0.000 
       7      0.000      7.250      0.000      0.000 
       8      0.000      7.250      0.000      0.000 
       9      0.000      7.250      0.000      0.000 
      10      0.000      0.000      0.000      0.000 
      11      1.362     -1.457      0.149      0.000 
      12      1.362     -1.457      0.149      0.000 
      13      1.362     -1.457      0.149      0.000 
      14      0.000      0.000      0.000      0.000 
      15      0.000      0.000      0.000      0.000 
      16      0.000      0.000      0.000      0.000 
      17      0.000      0.000      0.000      0.000 
      18      0.000      7.250      0.000      0.000 
      19      0.000      0.000      0.000      0.000 
      20      0.000      0.000      0.000      0.000 
      21      0.000      0.000      0.000      0.000 
      22      0.000      0.000      0.000      0.000 
      23      0.000      0.000      0.000      0.000 
      24      0.000      0.000      0.350      0.000 
      25      0.000      0.000      0.350      0.000 
      26      0.000      0.000      0.300      0.000 
      27      0.000      7.250      0.000      0.000 
      28      0.000      0.000      0.000      0.000 
      29      0.000      7.250      0.000      0.000 
      30      0.000      0.000      0.000      0.000 
      31      0.000      7.250      0.000      0.000 
      32      0.000      0.000      0.000      0.000 
      33      0.000      0.000      0.350      0.000 
      34      0.000      0.000      0.000      0.000 
      35      2.074     -2.966      2.473      0.000 
      36      0.000      7.250      0.000      0.000 
      37      0.000      0.000      0.350      0.000 
      38      0.000      0.000      0.000      0.000 
      39      0.000      7.250      0.000      0.000 
      40      0.000      0.000      0.462      0.000 
      41      0.000      7.250      0.000      0.000 
      42      0.000      7.250      0.000      0.000 
      43      1.362     -1.457      0.149      0.000 
      44      0.000      7.250      0.000      0.000 
      45      0.000      0.000      0.300      0.000 
      46      0.000      0.000      0.000      0.000 
      47      0.000      0.000      0.300      0.000 
      48      0.000      0.000      0.000      0.000 
      49      0.000      0.000      0.000      0.000 
      50      0.000      0.000      0.300      0.000 
      51      0.000      0.000      0.000      0.000 
      52      0.000      7.250      0.000      0.000 
      53      2.929     -2.533      0.497      0.000 
      54      0.000      0.000      0.000      0.000 
      55      2.074     -2.966      2.473      0.000 
      56      0.000      0.000      0.300      0.000 
      57      1.362     -1.457      0.149      0.000 
      58      0.000      0.000      0.000      0.000 
      59      0.000      0.000      0.350      0.000 
      60      0.000      7.250      0.000      0.000 
      61      0.000      7.250      0.000      0.000 
      62      0.000      0.000      0.350      0.000 
      63      0.000      0.000      0.000      0.000 
      64      0.000      0.000      0.000      0.000 
      65      0.000      0.000      0.000      0.000 
      66      0.000      0.000      0.300      0.000 
      67      0.000      0.000      0.000      0.000 
      68      0.000      7.250      0.000      0.000 
      69      1.671     -4.901      0.669      0.000 
      70      0.000      0.000      0.000      0.000 
      71      0.000      0.000      0.000      0.000 
      72      0.000      0.000      0.000      0.000 
      73      0.000      0.000      0.000      0.000 
      74      0.000      7.250      0.000      0.000 
      75      0.000      0.000      0.000      0.000 
      76      0.000      7.250      0.000      0.000 
      77      0.000      0.000      0.350      0.000 
      78      0.000      0.000      0.000      0.000 
      79      0.000      0.000      0.000      0.000 
      80      0.000      0.000      0.462      0.000 
      81      0.000      0.000      0.000      0.000 
      82      0.000      0.000      0.000      0.000 
      83      0.000      0.000      0.300      0.000 
      84      2.929     -2.533      0.497      0.000 
      85      0.000      0.000      0.300      0.000 
      86      0.000      0.000      0.300      0.000 
      87      0.000      0.000      0.000      0.000 
      88      0.000      7.250      0.000      0.000 
      89      1.362     -1.457      0.149      0.000 
      90      0.000      0.000      0.000      0.000 
      91      0.000      0.000      0.350      0.000 
      92      0.000      0.000      0.350      0.000 
      93      0.000      0.000      0.000      0.000 
      94      0.000      0.000      0.000      0.000 
      95      0.000      0.000      0.000      0.000 
      96      0.000      0.000      0.350      0.000 
      97      0.000      7.250      0.000      0.000 
      98      2.074     -2.966      2.473      0.000 
      99      0.000      7.250      0.000      0.000 
     100      0.000      0.000      0.350      0.000 
     101      0.000      0.000      0.000      0.000 
     102      0.000      0.000      0.000      0.000 
     103      0.000      0.000      0.000      0.000 
     104      0.000      0.000      0.350      0.000 
     105      0.000      0.000      0.000      0.000 
     106      0.000      7.250      0.000      0.000 
     107      0.000      0.000      0.300      0.000 
     108      0.000      7.250      0.000      0.000 
     109      0.000      7.250      0.000      0.000 
     110      0.000      0.000      0.000      0.000 

Improper Coeffs 

       1      0.000      -1       2 
       2      0.000      -1       2 
       3      0.000      -1       2 
       4      0.000      -1       2 
       5      2.500      -1       2 
       6      0.000      -1       2 
       7      2.500      -1       2 
       8      0.000      -1       2 
       9      2.500      -1       2 
      10      0.000      -1       2 
      11      0.000      -1       2 
      12      0.000      -1       2 
      13      0.000      -1       2 
      14      0.000      -1       2 
      15      0.000      -1       2 
      16      0.000      -1       2 
      17      0.000      -1       2 
      18      2.500      -1       2 
      19      2.500      -1       2 
      20      2.500      -1       2 
      21      2.500      -1       2 
      22      2.500      -1       2 
      23      0.000      -1       2 
      24      0.000      -1       2 
      25      0.000      -1       2 
      26      0.000      -1       2 
      27      0.000      -1       2 
      28      0.000      -1       2 
      29      0.000      -1       2 
      30      0.000      -1       2 

Atoms 

     1      1      1 -0.54060000    1.000  1.00000  0.00000
     2      1      2 1.81210000   -0.440  1.00000  0.00000
     3      1      3 -1.62920000   -0.989  1.00000  1.58962
     4      1      4 0.53560000   -0.720 -0.09409  2.65077
     5      1      5 -0.58340000   -1.337 -1.48475  2.29708
     6      1      6 1.33220000    0.133 -2.32576  2.78510
     7      1      7 -0.55020000    0.732 -0.67104  2.68627
     8      1      8 -0.53600000    0.653 -3.14784  1.71357
     9      1      9 -0.53600000    0.057 -2.79243  4.15182
    10      1     10 -0.15710000   -1.215  0.56337  3.96679
    11      1     11 -0.13890000   -1.153 -0.28215  5.24214
    12      1     12 -0.08370000   -1.733  0.49353  6.40454
    13      1     13 -0.14270000   -3.101  0.41126  6.69913
    14      1     14 -0.14550000   -3.654  1.19744  7.71110
    15      1     15 -0.14680000   -2.846  2.07104  8.43599
    16      1     16 -0.14520000   -1.486  2.15814  8.14876
    17      1     17 -0.14090000   -0.926  1.36212  7.15232
    18      1     18 -1.39030000   -0.973  2.53757 -0.45941
    19      1     19 0.19480000   -0.319  3.66689  0.24181
    20      1     20 0.18200000   -0.933  2.73797 -1.92982
    21      1     21 -0.54060000   -1.220  0.00869 -0.69539
    22      1     22 0.66900000   -1.988  1.21980  1.53126
    23      1     23 0.19740000   -1.554 -1.64871  1.23783
    24      1     24 0.19740000   -2.222 -1.77379  2.87100
    25      1     25 0.20120000    1.335 -0.54387  1.78563
    26      1     26 0.20120000    1.344 -0.37229  3.54218
    27      1     27 0.11620000   -2.257  0.88318  3.82107
    28      1     28 0.11620000   -0.635  1.48279  4.13197
    29      1     29 0.11410000   -0.120 -0.56106  5.47973
    30      1     30 0.11410000   -1.720 -1.21223  5.12561
    31      1     31 0.14750000   -3.744 -0.26493  6.14134
    32      1     32 0.14970000   -4.716  1.12847  7.93236
    33      1     33 0.14920000   -3.278  2.68181  9.22451
    34      1     34 0.14930000   -0.858  2.85084  8.70366
    35      1     35 0.14900000    0.142  1.42236  6.95971
    36      1     36 0.11180000   -0.402  3.55831  1.32639
    37      1     37 0.11180000   -0.825  4.60135 -0.02385
    38      1     38 0.11180000    0.735  3.75169 -0.03857
    39      1     39 0.11460000   -1.483  1.94636 -2.44623
    40      1     40 0.11460000    0.100  2.76059 -2.29219
    41      1     41 0.11460000   -1.418  3.68512 -2.18792

Bonds 

     1      1      2      1
     2      2      3      2
     3      3      4      3
     4      4      5      4
     5      5      6      5
     6      6      7      4
     7      7      8      6
     8      8      9      6
     9      9     10      4
    10     10     11     10
    11     11     12     11
    12     12     13     12
    13     13     14     13
    14     14     15     14
    15     15     16     15
    16     16     17     12
    17     17     18      2
    18     18     19     18
    19     19     20     18
    20     20     21      2
    21     21     22      3
    22     22     23      5
    23     23     24      5
    24     24     25      7
    25     25     26      7
    26     26     27     10
    27     27     28     10
    28     28     29     11
    29     29     30     11
    30     30     31     13
    31     31     32     14
    32     32     33     15
    33     33     34     16
    34     34     35     17
    35     35     36     19
    36     36     37     19
    37     37     38     19
    38     38     39     20
    39     39     40     20
    40     40     41     20
    41     41      7      6
    42     42     17     16

Angles 

     1      1      1      2      3
     2      2      2      3      4
     3      3      3      4      5
     4      4      4      5      6
     5      5      3      4      7
     6      6      5      6      8
     7      7      5      6      9
     8      8      3      4     10
     9      9      4     10     11
    10     10     10     11     12
    11     11     11     12     13
    12     12     12     13     14
    13     13     13     14     15
    14     14     14     15     16
    15     15     11     12     17
    16     16      1      2     18
    17     17      2     18     19
    18     18      2     18     20
    19     19      1      2     21
    20     20      2      3     22
    21     21      4      5     23
    22     22      4      5     24
    23     23      4      7     25
    24     24      4      7     26
    25     25      4     10     27
    26     26      4     10     28
    27     27     10     11     29
    28     28     10     11     30
    29     29     12     13     31
    30     30     13     14     32
    31     31     14     15     33
    32     32     15     16     34
    33     33     12     17     35
    34     34     18     19     36
    35     35     18     19     37
    36     36     18     19     38
    37     37     18     20     39
    38     38     18     20     40
    39     39     18     20     41
    40     40     36     19     38
    41     41     18      2     21
    42     42     16     17     35
    43     43     11     10     27
    44     44      6      5     24
    45     45      7      6      9
    46     46     17     16     34
    47     47      3      2     18
    48     48      3      2     21
    49     49     36     19     37
    50     50      6      7     26
    51     51     19     18     20
    52     52     39     20     40
    53     53     37     19     38
    54     54      4      3     22
    55     55      5      6      7
    56     56      6      7     25
    57     57      5      4     10
    58     58     12     11     30
    59     59     13     12     17
    60     60     40     20     41
    61     61     14     13     31
    62     62     25      7     26
    63     63      7      6      8
    64     64     15     14     32
    65     65      4      7      6
    66     66     12     17     16
    67     67      7      4     10
    68     68     11     10     28
    69     69      8      6      9
    70     70      6      5     23
    71     71     15     16     17
    72     72     23      5     24
    73     73     16     15     33
    74     74      5      4      7
    75     75     29     11     30
    76     76     12     11     29
    77     77     39     20     41
    78     78     27     10     28

Dihedrals

     1      1      4      3      2      1 
     2      2      5      4      3      2 
     3      3      6      5      4      3 
     4      4     11     10      4      3 
     5      5     12     11     10      4 
     6      6     13     12     11     10 
     7      7     14     13     12     11 
     8      8     15     14     13     12 
     9      9     16     15     14     13 
    10     10     19     18      2      1 
    11     11     36     19     18      2 
    12     12     39     20     18      2 
    13     13     38     19     18      2 
    14     14     25      7      4      5 
    15     15     22      3      4     10 
    16     16     21      2     18     19 
    17     17     17     12     11     10 
    18     18     34     16     15     14 
    19     19     37     19     18     20 
    20     20      8      6      5      4 
    21     21      9      6      5      4 
    22     22     22      3      2     21 
    23     23     25      7      4     10 
    24     24     23      5      6      9 
    25     25     24      5      6      8 
    26     26     30     11     10     27 
    27     27     35     17     12     13 
    28     28     40     20     18     19 
    29     29     17     12     13     14 
    30     30     24      5      4      7 
    31     31     31     13     12     17 
    32     32     27     10      4      3 
    33     33     25      7      6      8 
    34     34      6      7      4      3 
    35     35     20     18      2      3 
    36     36     31     13     14     15 
    37     37     23      5      6      7 
    38     38      9      6      7      4 
    39     39     33     15     14     32 
    40     40     27     10     11     12 
    41     41     35     17     12     11 
    42     42     34     16     17     12 
    43     43     40     20     18      2 
    44     44     33     15     16     17 
    45     45     27     10      4      5 
    46     46     30     11     12     13 
    47     47     28     10      4      7 
    48     48      8      6      7      4 
    49     49     30     11     12     17 
    50     50     30     11     10     28 
    51     51     41     20     18     19 
    52     52     15     16     17     12 
    53     53      7      4      3      2 
    54     54     23      5      4     10 
    55     55     19     18      2      3 
    56     56     27     10      4      7 
    57     57     37     19     18      2 
    58     58     28     10      4      3 
    59     59     24      5      6      7 
    60     60     34     16     15     33 
    61     61     31     13     12     11 
    62     62     25      7      6      5 
    63     63     23      5      4      3 
    64     64     22      3      4      7 
    65     65     26      7      4      3 
    66     66     29     11     10     27 
    67     67     26      7      4     10 
    68     68     16     17     12     11 
    69     69     22      3      2     18 
    70     70     29     11     12     17 
    71     71     39     20     18     19 
    72     72     36     19     18     20 
    73     73     24      5      4      3 
    74     74     16     17     12     13 
    75     75     20     18      2      1 
    76     76     35     17     16     34 
    77     77     26      7      6      9 
    78     78     23      5      4      7 
    79     79     21      2     18     20 
    80     80     28     10     11     12 
    81     81     38     19     18     20 
    82     82     21      2      3      4 
    83     83     30     11     10      4 
    84     84     10      4      3      2 
    85     85     29     11     10     28 
    86     86     28     10      4      5 
    87     87     11     10      4      7 
    88     88     33     15     14     13 
    89     89     41     20     18      2 
    90     90     22      3      2      1 
    91     91     25      7      6      9 
    92     92     26      7      6      8 
    93     93     29     11     12     13 
    94     94     11     10      4      5 
    95     95     26      7      4      5 
    96     96     23      5      6      8 
    97     97     35     17     16     15 
    98     98     18      2      3      4 
    99     99     32     14     13     31 
   100    100     26      7      6      5 
   101    101     22      3      4      5 
   102    102     10      4      5      6 
   103    103     24      5      4     10 
   104    104     24      5      6      9 
   105    105     10      4      7      6 
   106    106     32     14     15     16 
   107    107     29     11     10      4 
   108    108     17     16     15     14 
   109    109     32     14     13     12 
   110    110     25      7      4      3 

Impropers

     1      1      4      3      5      7 
     2      2      6      5      7      8 
     3      3      6      9      5      7 
     4      4      4     10      3      5 
     5      5     12     17     11     13 
     6      6      2      1     18      3 
     7      7     18     19     20      2 
     8      8      2      1      3     21 
     9      9      3      2      4     22 
    10     10      5      4      6     23 
    11     11      5      4      6     24 
    12     12      7     25      4      6 
    13     13      7     26      4      6 
    14     14     10     27      4     11 
    15     15     10      4     11     28 
    16     16     11     10     12     29 
    17     17     11     10     12     30 
    18     18     13     12     14     31 
    19     19     14     13     15     32 
    20     20     15     33     14     16 
    21     21     16     17     34     15 
    22     22     17     35     12     16 
    23     23     19     18     36     37 
    24     24     19     18     36     38 
    25     25     20     18     39     40 
    26     26     20     41     18     39 
    27     27      4      5      6      7 
    28     28      4      5      6      7 
    29     29      4      5      6      7 
    30     30      4      5      6      7 
