LAMMPS data file Created by LigParGen - (Written by Leela S. Dodda)

      29 atoms
      30 bonds
      48 angles
      68 dihedrals
      16 impropers
 
      29 atom types
      30 bond types
      48 angle types
      68 dihedral types
      16 improper types
 
   -4.017160    45.982840 xlo xhi
   -0.406290    49.593710 ylo yhi
   -4.472770    45.527230 zlo zhi

Masses

       1     15.999  
       2     12.011  
       3     12.011  
       4     12.011  
       5     12.011  
       6     12.011  
       7     12.011  
       8     12.011  
       9     14.007  
      10     32.060  
      11     12.011  
      12     12.011  
      13     12.011  
      14     12.011  
      15     12.011  
      16     12.011  
      17     15.999  
      18     15.999  
      19      1.008  
      20      1.008  
      21      1.008  
      22      1.008  
      23      1.008  
      24      1.008  
      25      1.008  
      26      1.008  
      27      1.008  
      28      1.008  
      29      1.008  

Pair Coeffs 

       1      0.210  2.9600000 
       2      0.070  3.5500000 
       3      0.070  3.5500000 
       4      0.070  3.5500000 
       5      0.070  3.5500000 
       6      0.070  3.5500000 
       7      0.070  3.5500000 
       8      0.070  3.5500000 
       9      0.170  3.2500000 
      10      0.250  3.5500000 
      11      0.070  3.5500000 
      12      0.070  3.5500000 
      13      0.070  3.5500000 
      14      0.070  3.5500000 
      15      0.070  3.5500000 
      16      0.070  3.5500000 
      17      0.170  2.9600000 
      18      0.170  2.9600000 
      19      0.030  2.4200000 
      20      0.030  2.4200000 
      21      0.030  2.4200000 
      22      0.030  2.4200000 
      23      0.030  2.4200000 
      24      0.000  0.0000000 
      25      0.030  2.4200000 
      26      0.030  2.4200000 
      27      0.030  2.4200000 
      28      0.030  2.4200000 
      29      0.030  2.4200000 

Bond Coeffs 

       1   570.0000     1.2290 
       2   400.0000     1.4900 
       3   469.0000     1.4000 
       4   469.0000     1.4000 
       5   469.0000     1.4000 
       6   469.0000     1.4000 
       7   469.0000     1.4000 
       8   490.0000     1.3350 
       9   434.0000     1.6700 
      10   340.0000     1.7700 
      11   469.0000     1.4000 
      12   469.0000     1.4000 
      13   469.0000     1.4000 
      14   469.0000     1.4000 
      15   469.0000     1.4000 
      16   700.0000     1.4400 
      17   700.0000     1.4400 
      18   367.0000     1.0800 
      19   367.0000     1.0800 
      20   367.0000     1.0800 
      21   367.0000     1.0800 
      22   367.0000     1.0800 
      23   434.0000     1.0100 
      24   367.0000     1.0800 
      25   367.0000     1.0800 
      26   367.0000     1.0800 
      27   367.0000     1.0800 
      28   367.0000     1.0800 
      29   469.0000     1.4000 
      30   469.0000     1.4000 

Angle Coeffs 

       1     80.000    120.400
       2     85.000    120.000
       3     63.000    120.000
       4     63.000    120.000
       5     63.000    120.000
       6     85.000    120.000
       7     80.000    122.900
       8     70.000    112.000
       9    100.000    103.000
      10     85.000    119.400
      11     63.000    120.000
      12     63.000    120.000
      13     63.000    120.000
      14     85.000    119.400
      15    120.000    107.000
      16    120.000    107.000
      17     35.000    120.000
      18     35.000    120.000
      19     35.000    120.000
      20     35.000    120.000
      21     35.000    120.000
      22     35.000    119.800
      23     35.000    120.000
      24     35.000    120.000
      25     35.000    120.000
      26     35.000    120.000
      27     35.000    120.000
      28    104.000    119.000
      29     63.000    120.000
      30     35.000    120.000
      31     63.000    120.000
      32     63.000    120.000
      33     35.000    120.000
      34     63.000    120.000
      35     74.000    107.200
      36     35.000    120.000
      37     35.000    120.000
      38    100.000    111.000
      39     74.000    107.200
      40     63.000    120.000
      41     35.000    120.000
      42     35.000    120.000
      43     70.000    115.500
      44     35.000    120.000
      45     35.000    120.000
      46     35.000    120.000
      47     63.000    120.000
      48     35.000    120.000

Dihedral Coeffs  

       1      0.000      2.100      0.000      0.000 
       2      0.000      7.250      0.000      0.000 
       3      0.000      7.250      0.000      0.000 
       4      0.000      7.250      0.000      0.000 
       5      0.000      6.089      0.000      0.000 
       6      2.074     -2.966      2.473      0.000 
       7      1.656     -0.768     -0.117      0.000 
       8      0.000      7.250      0.000      0.000 
       9      0.000      7.250      0.000      0.000 
      10      0.000      7.250      0.000      0.000 
      11      0.000      7.250      0.000      0.000 
      12      0.000      7.250      0.000      0.000 
      13      0.000      7.250      0.000      0.000 
      14      1.671     -4.901      0.669      0.000 
      15      0.000      7.250      0.000      0.000 
      16      0.000      0.000      0.000      0.000 
      17      0.000      7.250      0.000      0.000 
      18      0.000      7.250      0.000      0.000 
      19      0.000      0.000      0.000      0.000 
      20      0.000      0.000      0.000      0.000 
      21      0.000      7.250      0.000      0.000 
      22      0.000      7.250      0.000      0.000 
      23      0.000      0.000      0.000      0.000 
      24      0.000      7.250      0.000      0.000 
      25      0.000      7.250      0.000      0.000 
      26      0.000      7.250      0.000      0.000 
      27      0.000      7.250      0.000      0.000 
      28      0.000      7.250      0.000      0.000 
      29      0.000      7.250      0.000      0.000 
      30      0.000      7.250      0.000      0.000 
      31      0.000      4.900      0.000      0.000 
      32      0.000      7.250      0.000      0.000 
      33      1.656     -0.768     -0.117      0.000 
      34      0.000      7.250      0.000      0.000 
      35      0.000      7.250      0.000      0.000 
      36      0.000      7.250      0.000      0.000 
      37      0.000      7.250      0.000      0.000 
      38      0.000      7.250      0.000      0.000 
      39      0.000      7.250      0.000      0.000 
      40      0.000      7.250      0.000      0.000 
      41      0.000      7.250      0.000      0.000 
      42      0.000      1.100      0.000      0.000 
      43      0.000      0.000      0.000      0.000 
      44      0.000      7.250      0.000      0.000 
      45      0.000      7.250      0.000      0.000 
      46      0.000      0.000      0.000      0.000 
      47      0.000      0.000      0.000      0.000 
      48      0.000      7.250      0.000      0.000 
      49      0.000      7.250      0.000      0.000 
      50      0.000      1.100      0.000      0.000 
      51      0.000      7.250      0.000      0.000 
      52      0.000      7.250      0.000      0.000 
      53      0.000      7.250      0.000      0.000 
      54      0.000      7.250      0.000      0.000 
      55      0.000      2.100      0.000      0.000 
      56      0.000      7.250      0.000      0.000 
      57      0.000      7.250      0.000      0.000 
      58      0.000      7.250      0.000      0.000 
      59      0.000      7.250      0.000      0.000 
      60      0.000      7.250      0.000      0.000 
      61      0.000      7.250      0.000      0.000 
      62      0.000      7.250      0.000      0.000 
      63      0.000      4.900      0.000      0.000 
      64      0.000      7.250      0.000      0.000 
      65      0.000      7.250      0.000      0.000 
      66      0.000      7.250      0.000      0.000 
      67      0.000      0.000      0.000      0.000 
      68      0.000      4.900      0.000      0.000 

Improper Coeffs 

       1      2.500      -1       2 
       2     10.500      -1       2 
       3      2.500      -1       2 
       4      0.000      -1       2 
       5      0.000      -1       2 
       6      2.500      -1       2 
       7      2.500      -1       2 
       8      2.500      -1       2 
       9      2.500      -1       2 
      10      2.500      -1       2 
      11      2.500      -1       2 
      12      2.500      -1       2 
      13      2.500      -1       2 
      14      2.500      -1       2 
      15      2.500      -1       2 
      16      2.500      -1       2 

Atoms 

     1      1      1 -0.36640000    1.000  1.00000  0.00000
     2      1      2 0.90120000   -0.220  1.00000  0.00000
     3      1      3 -0.14110000   -0.989  1.00000  1.27914
     4      1      4 -0.07700000   -0.349  1.46309  2.43633
     5      1      5 -0.15860000   -1.024  1.48209  3.65884
     6      1      6 -0.11310000   -2.344  1.03822  3.73197
     7      1      7 -0.15830000   -2.987  0.57646  2.58569
     8      1      8 -0.10450000   -2.318  0.55463  1.36027
     9      1      9 -1.80570000   -0.993  1.00147 -1.16576
    10      1     10 1.63550000   -0.416  0.73374 -2.70095
    11      1     11 -0.48980000    0.509  2.19822 -3.07951
    12      1     12 -0.00790000    1.893  2.21652 -2.89294
    13      1     13 -0.17110000    2.623  3.34078 -3.28287
    14      1     14 -0.08080000    1.971  4.43519 -3.85407
    15      1     15 -0.17300000    0.588  4.41076 -4.03779
    16      1     16 -0.02980000   -0.145  3.28731 -3.66625
    17      1     17 -0.51310000    0.473 -0.40629 -2.68970
    18      1     18 -0.51310000   -1.597  0.73990 -3.54185
    19      1     19 0.17600000    0.682  1.81084  2.39033
    20      1     20 0.16010000   -0.520  1.84200  4.55259
    21      1     21 0.15600000   -2.868  1.05285  4.68551
    22      1     22 0.15770000   -4.017  0.23011  2.64915
    23      1     23 0.15300000   -2.838  0.14879  0.49673
    24      1     24 0.73210000   -1.991  1.17293 -1.15220
    25      1     25 0.18870000    2.405  1.36449 -2.44898
    26      1     26 0.16060000    3.701  3.36375 -3.14261
    27      1     27 0.15380000    2.543  5.30850 -4.15741
    28      1     28 0.15740000    0.083  5.26992 -4.47277
    29      1     29 0.17130000   -1.219  3.26610 -3.83645

Bonds 

     1      1      2      1
     2      2      3      2
     3      3      4      3
     4      4      5      4
     5      5      6      5
     6      6      7      6
     7      7      8      3
     8      8      9      2
     9      9     10      9
    10     10     11     10
    11     11     12     11
    12     12     13     12
    13     13     14     13
    14     14     15     14
    15     15     16     11
    16     16     17     10
    17     17     18     10
    18     18     19      4
    19     19     20      5
    20     20     21      6
    21     21     22      7
    22     22     23      8
    23     23     24      9
    24     24     25     12
    25     25     26     13
    26     26     27     14
    27     27     28     15
    28     28     29     16
    29     29      8      7
    30     30     16     15

Angles 

     1      1      1      2      3
     2      2      2      3      4
     3      3      3      4      5
     4      4      4      5      6
     5      5      5      6      7
     6      6      2      3      8
     7      7      1      2      9
     8      8      2      9     10
     9      9      9     10     11
    10     10     10     11     12
    11     11     11     12     13
    12     12     12     13     14
    13     13     13     14     15
    14     14     10     11     16
    15     15      9     10     17
    16     16      9     10     18
    17     17      3      4     19
    18     18      4      5     20
    19     19      5      6     21
    20     20      6      7     22
    21     21      3      8     23
    22     22      2      9     24
    23     23     11     12     25
    24     24     12     13     26
    25     25     13     14     27
    26     26     14     15     28
    27     27     11     16     29
    28     28     17     10     18
    29     29      3      8      7
    30     30     14     13     26
    31     31     11     16     15
    32     32      6      7      8
    33     33     16     15     28
    34     34     14     15     16
    35     35     11     10     18
    36     36      6      5     20
    37     37      5      4     19
    38     38     10      9     24
    39     39     11     10     17
    40     40     12     11     16
    41     41      8      7     22
    42     42     15     16     29
    43     43      3      2      9
    44     44     13     12     25
    45     45      7      8     23
    46     46     15     14     27
    47     47      4      3      8
    48     48      7      6     21

Dihedrals

     1      1      4      3      2      1 
     2      2      5      4      3      2 
     3      3      6      5      4      3 
     4      4      7      6      5      4 
     5      5     10      9      2      1 
     6      6     11     10      9      2 
     7      7     12     11     10      9 
     8      8     13     12     11     10 
     9      9     14     13     12     11 
    10     10     15     14     13     12 
    11     11     28     15     16     11 
    12     12     14     15     16     11 
    13     13     25     12     11     16 
    14     14     24      9     10     11 
    15     15     21      6      5      4 
    16     16     17     10     11     16 
    17     17     29     16     15     14 
    18     18     22      7      8      3 
    19     19     18     10     11     12 
    20     20     17     10     11     12 
    21     21     27     14     15     16 
    22     22     16     11     12     13 
    23     23     24      9     10     17 
    24     24     20      5      4      3 
    25     25     20      5      4     19 
    26     26     15     16     11     12 
    27     27     23      8      7      6 
    28     28     21      6      7      8 
    29     29     28     15     14     27 
    30     30     19      4      3      8 
    31     31     10      9      2      3 
    32     32     21      6      5     20 
    33     33     16     11     10      9 
    34     34     27     14     13     26 
    35     35      7      8      3      4 
    36     36     19      4      5      6 
    37     37     19      4      3      2 
    38     38      6      7      8      3 
    39     39     20      5      6      7 
    40     40     16     15     14     13 
    41     41      7      8      3      2 
    42     42      9      2      3      4 
    43     43     18     10      9      2 
    44     44      8      3      4      5 
    45     45      8      7      6      5 
    46     46     18     10     11     16 
    47     47     17     10      9      2 
    48     48     29     16     11     10 
    49     49     22      7      6      5 
    50     50      9      2      3      8 
    51     51     27     14     13     12 
    52     52     25     12     11     10 
    53     53     23      8      3      4 
    54     54     28     15     14     13 
    55     55      8      3      2      1 
    56     56     23      8      7     22 
    57     57     26     13     12     25 
    58     58     15     16     11     10 
    59     59     29     16     15     28 
    60     60     23      8      3      2 
    61     61     22      7      6     21 
    62     62     25     12     13     14 
    63     63     24      9      2      1 
    64     64     26     13     14     15 
    65     65     26     13     12     11 
    66     66     29     16     11     12 
    67     67     24      9     10     18 
    68     68     24      9      2      3 

Impropers

     1      1      3      2      4      8 
     2      2      2      9      3      1 
     3      3     11     10     12     16 
     4      4     10     17     11      9 
     5      5     10      9     18     11 
     6      6      4     19      5      3 
     7      7      5      4     20      6 
     8      8      6      5     21      7 
     9      9      7      8     22      6 
    10     10      8      3      7     23 
    11     11      9      2     10     24 
    12     12     12     25     11     13 
    13     13     13     26     12     14 
    14     14     14     27     13     15 
    15     15     15     28     14     16 
    16     16     16     11     29     15 
