LAMMPS data file Created by LigParGen - (Written by Leela S. Dodda)

      41 atoms
      43 bonds
      76 angles
     110 dihedrals
      29 impropers
 
      41 atom types
      43 bond types
      76 angle types
     110 dihedral types
      29 improper types
 
   -6.166160    43.833840 xlo xhi
   -1.501410    48.498590 ylo yhi
   -2.173220    47.826780 zlo zhi

Masses

       1     15.999  
       2     32.060  
       3     14.007  
       4     12.011  
       5     12.011  
       6     15.999  
       7     12.011  
       8     12.011  
       9     12.011  
      10     12.011  
      11     12.011  
      12     12.011  
      13     12.011  
      14     12.011  
      15     12.011  
      16     12.011  
      17     12.011  
      18     12.011  
      19     12.011  
      20     12.011  
      21     12.011  
      22     15.999  
      23      1.008  
      24      1.008  
      25      1.008  
      26      1.008  
      27      1.008  
      28      1.008  
      29      1.008  
      30      1.008  
      31      1.008  
      32      1.008  
      33      1.008  
      34      1.008  
      35      1.008  
      36      1.008  
      37      1.008  
      38      1.008  
      39      1.008  
      40      1.008  
      41      1.008  

Pair Coeffs 

       1      0.170  2.9600000 
       2      0.250  3.5500000 
       3      0.170  3.2500000 
       4      0.083  3.4500000 
       5      0.083  3.4500000 
       6      0.140  2.9000000 
       7      0.083  3.4500000 
       8      0.066  3.5000000 
       9      0.066  3.5000000 
      10      0.070  3.5500000 
      11      0.070  3.5500000 
      12      0.070  3.5500000 
      13      0.070  3.5500000 
      14      0.070  3.5500000 
      15      0.070  3.5500000 
      16      0.070  3.5500000 
      17      0.070  3.5500000 
      18      0.070  3.5500000 
      19      0.070  3.5500000 
      20      0.070  3.5500000 
      21      0.070  3.5500000 
      22      0.170  2.9600000 
      23      0.000  0.0000000 
      24      0.030  2.5000000 
      25      0.030  2.5000000 
      26      0.030  2.5000000 
      27      0.030  2.5000000 
      28      0.030  2.5000000 
      29      0.030  2.5000000 
      30      0.030  2.5000000 
      31      0.030  2.5000000 
      32      0.030  2.4200000 
      33      0.030  2.4200000 
      34      0.030  2.4200000 
      35      0.030  2.4200000 
      36      0.030  2.4200000 
      37      0.030  2.4200000 
      38      0.030  2.4200000 
      39      0.030  2.4200000 
      40      0.030  2.4200000 
      41      0.030  2.4200000 

Bond Coeffs 

       1   700.0000     1.4400 
       2   434.0000     1.6700 
       3   337.0000     1.4490 
       4   260.0000     1.5200 
       5   320.0000     1.4100 
       6   260.0000     1.5200 
       7   280.0000     1.5100 
       8   268.0000     1.5290 
       9   317.0000     1.5100 
      10   469.0000     1.4000 
      11   469.0000     1.4000 
      12   469.0000     1.4000 
      13   469.0000     1.4000 
      14   469.0000     1.4000 
      15   340.0000     1.7700 
      16   469.0000     1.4000 
      17   469.0000     1.4000 
      18   469.0000     1.4000 
      19   469.0000     1.4000 
      20   469.0000     1.4000 
      21   700.0000     1.4400 
      22   434.0000     1.0100 
      23   340.0000     1.0880 
      24   340.0000     1.0880 
      25   340.0000     1.0880 
      26   340.0000     1.0880 
      27   340.0000     1.0900 
      28   340.0000     1.0900 
      29   340.0000     1.0900 
      30   340.0000     1.0900 
      31   367.0000     1.0800 
      32   367.0000     1.0800 
      33   367.0000     1.0800 
      34   367.0000     1.0800 
      35   367.0000     1.0800 
      36   367.0000     1.0800 
      37   367.0000     1.0800 
      38   367.0000     1.0800 
      39   367.0000     1.0800 
      40   367.0000     1.0800 
      41   320.0000     1.4100 
      42   469.0000     1.4000 
      43   469.0000     1.4000 

Angle Coeffs 

       1    120.000    107.000
       2     50.000    120.000
       3     37.500    126.000
       4     50.000     90.000
       5     37.500    126.000
       6     80.000    109.700
       7     58.350    112.700
       8     63.000    114.000
       9     70.000    120.000
      10     63.000    120.000
      11     63.000    120.000
      12     63.000    120.000
      13     70.000    120.000
      14     74.000    107.200
      15     85.000    119.400
      16     63.000    120.000
      17     63.000    120.000
      18     63.000    120.000
      19     85.000    119.400
      20    104.000    119.000
      21    100.000    111.000
      22     37.500    117.200
      23     37.500    117.200
      24     37.500    117.200
      25     37.500    117.200
      26     37.500    110.700
      27     37.500    110.700
      28     37.500    110.700
      29     37.500    110.700
      30     35.000    120.000
      31     35.000    120.000
      32     35.000    120.000
      33     35.000    120.000
      34     35.000    120.000
      35     35.000    120.000
      36     35.000    120.000
      37     35.000    120.000
      38     35.000    120.000
      39     35.000    120.000
      40     37.500    110.700
      41     35.000    120.000
      42     35.000    109.500
      43     35.000    114.300
      44     37.500    117.200
      45     63.000    120.000
      46     35.000    120.000
      47     30.000     83.000
      48     37.500    117.200
      49     37.500    110.700
      50     33.000    107.800
      51     35.000    114.300
      52     35.000    120.000
      53     37.500    117.200
      54     63.000    120.000
      55     60.000     90.000
      56     35.000    120.000
      57     35.000    120.000
      58     63.000    120.000
      59     40.000    113.000
      60    120.000    107.000
      61     35.000    120.000
      62    100.000    103.000
      63     63.000    120.000
      64     37.500    117.200
      65     63.000    120.000
      66     35.000    120.000
      67     35.000    120.000
      68     35.000    109.500
      69     50.000     90.000
      70     37.500    117.200
      71     35.000    120.000
      72     37.500    117.200
      73     33.000    107.800
      74     63.000    120.000
      75     35.000    120.000
      76     74.000    107.200

Dihedral Coeffs  

       1      0.000      0.000      0.000      0.000 
       2      2.929     -2.533      0.497      0.000 
       3      0.000      0.000      0.000      0.000 
       4      0.845     -0.962      0.713      0.000 
       5     -1.697     -0.456      0.585      0.000 
       6      0.000      0.000      0.000      0.000 
       7      0.000      7.250      0.000      0.000 
       8      0.000      7.250      0.000      0.000 
       9      0.000      7.250      0.000      0.000 
      10      0.000      0.000      0.000      0.000 
      11      0.000      7.250      0.000      0.000 
      12      0.000      7.250      0.000      0.000 
      13      0.000      7.250      0.000      0.000 
      14      0.000      7.250      0.000      0.000 
      15      0.000      0.000      0.000      0.000 
      16      0.000      0.000      0.462      0.000 
      17      0.000      7.250      0.000      0.000 
      18      0.000      0.000      0.000      0.000 
      19      0.000      7.250      0.000      0.000 
      20      0.000      7.250      0.000      0.000 
      21      0.000      0.000      0.000      0.000 
      22      0.000      0.000      0.300      0.000 
      23      0.000      7.250      0.000      0.000 
      24      0.000      7.250      0.000      0.000 
      25      1.671     -4.901      0.669      0.000 
      26      0.000      0.000      0.000      0.000 
      27      0.000      0.000      0.000      0.000 
      28      1.656     -0.768     -0.117      0.000 
      29      0.000      0.000      0.000      0.000 
      30      0.000      0.000      0.000      0.000 
      31      0.000      0.000      0.000      0.000 
      32      0.000      0.000      0.000      0.000 
      33      0.000      0.000      0.000      0.000 
      34      0.000      7.250      0.000      0.000 
      35      0.000      0.000      0.000      0.000 
      36      0.000      7.250      0.000      0.000 
      37      0.000      0.000      0.000      0.000 
      38      0.000      0.000      0.300      0.000 
      39      2.074     -2.966      2.473      0.000 
      40      0.000      7.250      0.000      0.000 
      41      0.000      7.250      0.000      0.000 
      42      0.000      7.250      0.000      0.000 
      43      0.000      7.250      0.000      0.000 
      44      0.000      7.250      0.000      0.000 
      45      0.000      0.000      0.000      0.000 
      46      0.000      0.000      0.000      0.000 
      47      0.000      7.250      0.000      0.000 
      48      0.000      0.000      0.300      0.000 
      49      0.000      7.250      0.000      0.000 
      50      0.000      7.250      0.000      0.000 
      51      0.000      0.000      0.000      0.000 
      52      0.000      0.000      0.000      0.000 
      53      0.000      7.250      0.000      0.000 
      54      0.000      0.000      0.000      0.000 
      55      0.000      0.000      0.000      0.000 
      56      0.000      7.250      0.000      0.000 
      57      0.000      7.250      0.000      0.000 
      58      0.000      7.250      0.000      0.000 
      59      0.000      7.250      0.000      0.000 
      60      2.929     -2.533      0.497      0.000 
      61      0.000      0.000      0.000      0.000 
      62      0.000      7.250      0.000      0.000 
      63      0.000      7.250      0.000      0.000 
      64      0.000      7.250      0.000      0.000 
      65      0.000      7.250      0.000      0.000 
      66      0.000      0.000      0.000      0.000 
      67      0.000      0.000      0.300      0.000 
      68      0.000      0.000      0.000      0.000 
      69      2.929     -2.533      0.497      0.000 
      70      0.000      0.000      0.000      0.000 
      71      0.000      0.000      0.300      0.000 
      72      0.000      0.000      0.462      0.000 
      73      0.000      0.000      0.000      0.000 
      74      0.000      7.250      0.000      0.000 
      75      0.000      0.000      0.000      0.000 
      76      0.000      7.250      0.000      0.000 
      77      1.656     -0.768     -0.117      0.000 
      78      0.000      0.000      0.000      0.000 
      79      0.000      7.250      0.000      0.000 
      80      0.000      7.250      0.000      0.000 
      81      0.000      0.000      0.000      0.000 
      82      0.000      0.000      0.300      0.000 
      83      0.000      0.000      0.300      0.000 
      84      0.000      7.250      0.000      0.000 
      85      0.000      0.000      0.300      0.000 
      86      0.000      7.250      0.000      0.000 
      87      0.000      0.000      0.000      0.000 
      88      0.000      0.000      0.300      0.000 
      89      0.000      7.250      0.000      0.000 
      90      0.000      0.000      0.000      0.000 
      91      0.000      0.000      0.000      0.000 
      92      0.000      7.250      0.000      0.000 
      93      0.000      0.000      0.300      0.000 
      94      0.000      0.000      0.000      0.000 
      95      0.000      7.250      0.000      0.000 
      96      0.000      7.250      0.000      0.000 
      97      0.000      7.250      0.000      0.000 
      98      0.000      0.000      0.000      0.000 
      99      0.000      0.000      0.000      0.000 
     100      0.000      7.250      0.000      0.000 
     101      0.000      0.000      0.000      0.000 
     102      0.000      7.250      0.000      0.000 
     103      0.000      7.250      0.000      0.000 
     104      0.000      0.000      0.000      0.000 
     105      0.000      0.000      0.000      0.000 
     106      0.000      0.000      0.000      0.000 
     107      0.000      7.250      0.000      0.000 
     108      0.000      7.250      0.000      0.000 
     109      0.000      7.250      0.000      0.000 
     110      0.000      0.000      0.000      0.000 

Improper Coeffs 

       1      0.000      -1       2 
       2      0.000      -1       2 
       3      2.500      -1       2 
       4      0.000      -1       2 
       5      2.500      -1       2 
       6      0.000      -1       2 
       7      2.500      -1       2 
       8      0.000      -1       2 
       9      0.000      -1       2 
      10      0.000      -1       2 
      11      0.000      -1       2 
      12      0.000      -1       2 
      13      0.000      -1       2 
      14      0.000      -1       2 
      15      0.000      -1       2 
      16      2.500      -1       2 
      17      2.500      -1       2 
      18      2.500      -1       2 
      19      2.500      -1       2 
      20      2.500      -1       2 
      21      2.500      -1       2 
      22      2.500      -1       2 
      23      2.500      -1       2 
      24      2.500      -1       2 
      25      2.500      -1       2 
      26      0.000      -1       2 
      27      0.000      -1       2 
      28      0.000      -1       2 
      29      0.000      -1       2 

Atoms 

     1      1      1 -0.51720000    1.000  1.00000  0.00000
     2      1      2 1.61840000   -0.445  1.00000  0.00000
     3      1      3 -1.65030000   -0.943  1.00000  1.62885
     4      1      4 0.38630000   -2.356  0.65513  2.11261
     5      1      5 0.00620000   -2.865 -0.76461  1.74099
     6      1      6 -0.36510000   -3.358 -0.96071  3.09607
     7      1      7 -0.00650000   -2.473  0.09808  3.55623
     8      1      8 -0.18640000   -3.217  1.88133  1.82225
     9      1      9 -0.11630000   -4.716  1.85617  2.10292
    10      1     10 -0.08960000   -5.248  3.19018  1.58890
    11      1     11 -0.14300000   -5.656  3.32696  0.25214
    12      1     12 -0.14900000   -5.892  4.59341 -0.29137
    13      1     13 -0.15030000   -5.724  5.73331  0.49159
    14      1     14 -0.14510000   -5.319  5.60694  1.81878
    15      1     15 -0.14300000   -5.126  4.34368  2.37804
    16      1     16 -0.51490000   -0.969  2.60634 -0.56590
    17      1     17 -0.04480000   -0.280  3.73987 -0.12712
    18      1     18 -0.16550000   -0.786  5.00692 -0.42505
    19      1     19 -0.08290000   -1.969  5.13090 -1.15421
    20      1     20 -0.16240000   -2.622  3.99549 -1.63369
    21      1     21 -0.03260000   -2.105  2.72726 -1.37541
    22      1     22 -0.51720000   -1.221 -0.00943 -0.69896
    23      1     23 0.67130000   -0.477  1.74466  2.14799
    24      1     24 0.13370000   -2.083 -1.50141  1.51305
    25      1     25 0.13370000   -3.656 -0.82596  0.99265
    26      1     26 0.11980000   -1.556 -0.31872  3.98757
    27      1     27 0.11980000   -2.962  0.73963  4.29428
    28      1     28 0.10270000   -3.137  2.08022  0.75808
    29      1     29 0.10270000   -2.770  2.74188  2.33912
    30      1     30 0.11200000   -4.935  1.74576  3.16987
    31      1     31 0.11200000   -5.211  1.02899  1.58091
    32      1     32 0.15010000   -5.735  2.45300 -0.39069
    33      1     33 0.14790000   -6.166  4.69337 -1.33887
    34      1     34 0.14890000   -5.906  6.71746  0.06760
    35      1     35 0.14930000   -5.112  6.49670  2.40769
    36      1     36 0.14850000   -4.822  4.26374  3.41923
    37      1     37 0.16730000    0.641  3.64689  0.44223
    38      1     38 0.15830000   -0.260  5.89763 -0.08899
    39      1     39 0.15560000   -2.387  6.11700 -1.35033
    40      1     40 0.15860000   -3.558  4.09614 -2.17322
    41      1     41 0.17890000   -2.633  1.84860 -1.73295

Bonds 

     1      1      2      1
     2      2      3      2
     3      3      4      3
     4      4      5      4
     5      5      6      5
     6      6      7      4
     7      7      8      4
     8      8      9      8
     9      9     10      9
    10     10     11     10
    11     11     12     11
    12     12     13     12
    13     13     14     13
    14     14     15     10
    15     15     16      2
    16     16     17     16
    17     17     18     17
    18     18     19     18
    19     19     20     19
    20     20     21     16
    21     21     22      2
    22     22     23      3
    23     23     24      5
    24     24     25      5
    25     25     26      7
    26     26     27      7
    27     27     28      8
    28     28     29      8
    29     29     30      9
    30     30     31      9
    31     31     32     11
    32     32     33     12
    33     33     34     13
    34     34     35     14
    35     35     36     15
    36     36     37     17
    37     37     38     18
    38     38     39     19
    39     39     40     20
    40     40     41     21
    41     41      7      6
    42     42     15     14
    43     43     21     20

Angles 

     1      1      1      2      3
     2      2      2      3      4
     3      3      3      4      5
     4      4      4      5      6
     5      5      3      4      7
     6      6      3      4      8
     7      7      4      8      9
     8      8      8      9     10
     9      9      9     10     11
    10     10     10     11     12
    11     11     11     12     13
    12     12     12     13     14
    13     13      9     10     15
    14     14      1      2     16
    15     15      2     16     17
    16     16     16     17     18
    17     17     17     18     19
    18     18     18     19     20
    19     19      2     16     21
    20     20      1      2     22
    21     21      2      3     23
    22     22      4      5     24
    23     23      4      5     25
    24     24      4      7     26
    25     25      4      7     27
    26     26      4      8     28
    27     27      4      8     29
    28     28      8      9     30
    29     29      8      9     31
    30     30     10     11     32
    31     31     11     12     33
    32     32     12     13     34
    33     33     13     14     35
    34     34     10     15     36
    35     35     16     17     37
    36     36     17     18     38
    37     37     18     19     39
    38     38     19     20     40
    39     39     16     21     41
    40     40      9      8     28
    41     41     20     19     39
    42     42     10      9     30
    43     43     24      5     25
    44     44      6      5     24
    45     45     13     14     15
    46     46     13     12     33
    47     47      5      4      7
    48     48      6      7     26
    49     49      9      8     29
    50     50     28      8     29
    51     51     26      7     27
    52     52     14     15     36
    53     53      7      4      8
    54     54     16     21     20
    55     55      5      6      7
    56     56     12     11     32
    57     57     21     20     40
    58     58     19     20     21
    59     59      4      3     23
    60     60      3      2     22
    61     61     14     13     34
    62     62      3      2     16
    63     63     11     10     15
    64     64      5      4      8
    65     65     10     15     14
    66     66     18     17     37
    67     67     19     18     38
    68     68     10      9     31
    69     69      4      7      6
    70     70      6      7     27
    71     71     15     14     35
    72     72      6      5     25
    73     73     30      9     31
    74     74     17     16     21
    75     75     20     21     41
    76     76     16      2     22

Dihedrals

     1      1      4      3      2      1 
     2      2      5      4      3      2 
     3      3      6      5      4      3 
     4      4      9      8      4      3 
     5      5     10      9      8      4 
     6      6     11     10      9      8 
     7      7     12     11     10      9 
     8      8     13     12     11     10 
     9      9     14     13     12     11 
    10     10     17     16      2      1 
    11     11     18     17     16      2 
    12     12     19     18     17     16 
    13     13     20     19     18     17 
    14     14     32     11     10     15 
    15     15     27      7      4      3 
    16     16     28      8      9     10 
    17     17     36     15     14     13 
    18     18     31      9     10     15 
    19     19     32     11     12     13 
    20     20     38     18     17     16 
    21     21     25      5      4      3 
    22     22     28      8      4      5 
    23     23     33     12     11     10 
    24     24     35     14     15     10 
    25     25     23      3      2     16 
    26     26     27      7      4      8 
    27     27     25      5      6      7 
    28     28     21     16      2      3 
    29     29     24      5      4      7 
    30     30      9      8      4      5 
    31     31     22      2     16     17 
    32     32     23      3      4      5 
    33     33      6      7      4      3 
    34     34     40     20     19     39 
    35     35     22      2     16     21 
    36     36     33     12     13     14 
    37     37     27      7      4      5 
    38     38     29      8      4      7 
    39     39     16      2      3      4 
    40     40     36     15     10     11 
    41     41     21     20     19     18 
    42     42     20     21     16     17 
    43     43     13     14     15     10 
    44     44     37     17     16      2 
    45     45     15     10      9      8 
    46     46     23      3      2     22 
    47     47     38     18     17     37 
    48     48     30      9      8      4 
    49     49     41     21     16      2 
    50     50     36     15     14     35 
    51     51      8      4      5      6 
    52     52     28      8      4      3 
    53     53     32     11     10      9 
    54     54     30      9     10     15 
    55     55     26      7      4      3 
    56     56     21     16     17     18 
    57     57     40     20     19     18 
    58     58     15     10     11     12 
    59     59     14     15     10      9 
    60     60      7      4      3      2 
    61     61     25      5      4      8 
    62     62     37     17     16     21 
    63     63     41     21     20     40 
    64     64     36     15     10      9 
    65     65     40     20     21     16 
    66     66     24      5      6      7 
    67     67     29      8      4      5 
    68     68     23      3      4      8 
    69     69      8      4      3      2 
    70     70     31      9     10     11 
    71     71     30      9      8     28 
    72     72     29      8      9     10 
    73     73      9      8      4      7 
    74     74     33     12     11     32 
    75     75      8      4      7      6 
    76     76     41     21     16     17 
    77     77     17     16      2      3 
    78     78     30      9     10     11 
    79     79     39     19     18     17 
    80     80     19     20     21     16 
    81     81     24      5      4      3 
    82     82     31      9      8     28 
    83     83     28      8      4      7 
    84     84     35     14     13     34 
    85     85     30      9      8     29 
    86     86     15     14     13     12 
    87     87     23      3      2      1 
    88     88     31      9      8     29 
    89     89     35     14     13     12 
    90     90     27      7      6      5 
    91     91     29      8      4      3 
    92     92     38     18     19     20 
    93     93     31      9      8      4 
    94     94     21     16      2      1 
    95     95     39     19     18     38 
    96     96     39     19     20     21 
    97     97     14     15     10     11 
    98     98     24      5      4      8 
    99     99     25      5      4      7 
   100    100     34     13     14     15 
   101    101     26      7      4      5 
   102    102     34     13     12     33 
   103    103     37     17     18     19 
   104    104     22      2      3      4 
   105    105     23      3      4      7 
   106    106     26      7      6      5 
   107    107     41     21     20     19 
   108    108     34     13     12     11 
   109    109     20     21     16      2 
   110    110     26      7      4      8 

Impropers

     1      1      4      3      5      7 
     2      2      4      3      5      8 
     3      3     10      9     11     15 
     4      4      2      1      3     16 
     5      5     16     17      2     21 
     6      6      2      1      3     22 
     7      7      3      2      4     23 
     8      8      5      4      6     24 
     9      9      5     25      4      6 
    10     10      7     26      4      6 
    11     11      7     27      4      6 
    12     12      8      4      9     28 
    13     13      8      9      4     29 
    14     14      9     10     30      8 
    15     15      9     10     31      8 
    16     16     11     10     12     32 
    17     17     12     33     11     13 
    18     18     13     34     12     14 
    19     19     14     35     13     15 
    20     20     15     10     36     14 
    21     21     17     18     37     16 
    22     22     18     17     19     38 
    23     23     19     18     20     39 
    24     24     20     19     21     40 
    25     25     21     41     20     16 
    26     26      4      5      6      7 
    27     27      4      5      6      7 
    28     28      4      5      6      7 
    29     29      4      5      6      7 
