 Entering Gaussian System, Link 0=g09
 Input=triazole.com
 Output=triazole.log
 Initial command:
 /Applications/Gaussian/g09/l1.exe "/Users/bogdan/_Documents_Bogdan/ICSN-Projets/Challenges/2020-SAMPL7-PhysProp/sampl7-physprop/03_logP_mdpow/top/oplsaa/_charges_CM5/triazole/Gau-66879.inp" -scrdir="/Users/bogdan/_Documents_Bogdan/ICSN-Projets/Challenges/2020-SAMPL7-PhysProp/sampl7-physprop/03_logP_mdpow/top/oplsaa/_charges_CM5/triazole/"
 Entering Link 1 = /Applications/Gaussian/g09/l1.exe PID=     66880.
  
 Copyright (c) 1988,1990,1992,1993,1995,1998,2003,2009,2013,
            Gaussian, Inc.  All Rights Reserved.
  
 This is part of the Gaussian(R) 09 program.  It is based on
 the Gaussian(R) 03 system (copyright 2003, Gaussian, Inc.),
 the Gaussian(R) 98 system (copyright 1998, Gaussian, Inc.),
 the Gaussian(R) 94 system (copyright 1995, Gaussian, Inc.),
 the Gaussian 92(TM) system (copyright 1992, Gaussian, Inc.),
 the Gaussian 90(TM) system (copyright 1990, Gaussian, Inc.),
 the Gaussian 88(TM) system (copyright 1988, Gaussian, Inc.),
 the Gaussian 86(TM) system (copyright 1986, Carnegie Mellon
 University), and the Gaussian 82(TM) system (copyright 1983,
 Carnegie Mellon University). Gaussian is a federally registered
 trademark of Gaussian, Inc.
  
 This software contains proprietary and confidential information,
 including trade secrets, belonging to Gaussian, Inc.
  
 This software is provided under written license and may be
 used, copied, transmitted, or stored only in accord with that
 written license.
  
 The following legend is applicable only to US Government
 contracts under FAR:
  
                    RESTRICTED RIGHTS LEGEND
  
 Use, reproduction and disclosure by the US Government is
 subject to restrictions as set forth in subparagraphs (a)
 and (c) of the Commercial Computer Software - Restricted
 Rights clause in FAR 52.227-19.
  
 Gaussian, Inc.
 340 Quinnipiac St., Bldg. 40, Wallingford CT 06492
  
  
 ---------------------------------------------------------------
 Warning -- This program may not be used in any manner that
 competes with the business of Gaussian, Inc. or will provide
 assistance to any competitor of Gaussian, Inc.  The licensee
 of this program is prohibited from giving any competitor of
 Gaussian, Inc. access to this program.  By using this program,
 the user acknowledges that Gaussian, Inc. is engaged in the
 business of creating and licensing software in the field of
 computational chemistry and represents and warrants to the
 licensee that it is not a competitor of Gaussian, Inc. and that
 it will not use this program in any manner prohibited above.
 ---------------------------------------------------------------
  

 Cite this work as:
 Gaussian 09, Revision D.01,
 M. J. Frisch, G. W. Trucks, H. B. Schlegel, G. E. Scuseria, 
 M. A. Robb, J. R. Cheeseman, G. Scalmani, V. Barone, B. Mennucci, 
 G. A. Petersson, H. Nakatsuji, M. Caricato, X. Li, H. P. Hratchian, 
 A. F. Izmaylov, J. Bloino, G. Zheng, J. L. Sonnenberg, M. Hada, 
 M. Ehara, K. Toyota, R. Fukuda, J. Hasegawa, M. Ishida, T. Nakajima, 
 Y. Honda, O. Kitao, H. Nakai, T. Vreven, J. A. Montgomery, Jr., 
 J. E. Peralta, F. Ogliaro, M. Bearpark, J. J. Heyd, E. Brothers, 
 K. N. Kudin, V. N. Staroverov, T. Keith, R. Kobayashi, J. Normand, 
 K. Raghavachari, A. Rendell, J. C. Burant, S. S. Iyengar, J. Tomasi, 
 M. Cossi, N. Rega, J. M. Millam, M. Klene, J. E. Knox, J. B. Cross, 
 V. Bakken, C. Adamo, J. Jaramillo, R. Gomperts, R. E. Stratmann, 
 O. Yazyev, A. J. Austin, R. Cammi, C. Pomelli, J. W. Ochterski, 
 R. L. Martin, K. Morokuma, V. G. Zakrzewski, G. A. Voth, 
 P. Salvador, J. J. Dannenberg, S. Dapprich, A. D. Daniels, 
 O. Farkas, J. B. Foresman, J. V. Ortiz, J. Cioslowski, 
 and D. J. Fox, Gaussian, Inc., Wallingford CT, 2013.
 
 ******************************************
 Gaussian 09:  EM64M-G09RevD.01 24-Apr-2013
                21-Jul-2020 
 ******************************************
 %nprocshared=2
 Will use up to    2 processors via shared memory.
 %mem=2GB
 %chk=triazole.chk
 ---------------------------------------
 #p opt b3lyp/6-31g(d) geom=connectivity
 ---------------------------------------
 1/14=-1,18=20,19=15,26=3,38=1,57=2/1,3;
 2/9=110,12=2,17=6,18=5,40=1/2;
 3/5=1,6=6,7=1,11=2,16=1,25=1,30=1,71=1,74=-5/1,2,3;
 4//1;
 5/5=2,38=5/2;
 6/7=2,8=2,9=2,10=2,28=1/1;
 7//1,2,3,16;
 1/14=-1,18=20,19=15,26=3/3(2);
 2/9=110/2;
 99//99;
 2/9=110/2;
 3/5=1,6=6,7=1,11=2,16=1,25=1,30=1,71=1,74=-5/1,2,3;
 4/5=5,16=3,69=1/1;
 5/5=2,38=5/2;
 7//1,2,3,16;
 1/14=-1,18=20,19=15,26=3/3(-5);
 2/9=110/2;
 6/7=2,8=2,9=2,10=2,19=2,28=1/1;
 99/9=1/99;
 Leave Link    1 at Tue Jul 21 14:56:05 2020, MaxMem=   268435456 cpu:         0.0
 (Enter /Applications/Gaussian/g09/l101.exe)
 --------
 triazole
 --------
 Symbolic Z-matrix:
 Charge =  0 Multiplicity = 1
 C                    -5.71292   1.85296   0.10379 
 C                    -4.38257   1.87172  -0.25196 
 H                    -6.35309   0.97313   0.12049 
 H                    -3.79963   1.003    -0.56314 
 N                    -3.83445   3.19203  -0.1665 
 N                    -4.77778   4.10475   0.25031 
 N                    -6.25888   3.37731   0.52145 
 H                    -7.14622   3.72618   0.82299 
 
 NAtoms=      8 NQM=        8 NQMF=       0 NMMI=      0 NMMIF=      0
                NMic=       0 NMicF=      0.
                    Isotopes and Nuclear Properties:
 (Nuclear quadrupole moments (NQMom) in fm**2, nuclear magnetic moments (NMagM)
  in nuclear magnetons)

  Atom         1           2           3           4           5           6           7           8
 IAtWgt=          12          12           1           1          14          14          14           1
 AtmWgt=  12.0000000  12.0000000   1.0078250   1.0078250  14.0030740  14.0030740  14.0030740   1.0078250
 NucSpn=           0           0           1           1           2           2           2           1
 AtZEff=   0.0000000   0.0000000   0.0000000   0.0000000   0.0000000   0.0000000   0.0000000   0.0000000
 NQMom=    0.0000000   0.0000000   0.0000000   0.0000000   2.0440000   2.0440000   2.0440000   0.0000000
 NMagM=    0.0000000   0.0000000   2.7928460   2.7928460   0.4037610   0.4037610   0.4037610   2.7928460
 AtZNuc=   6.0000000   6.0000000   1.0000000   1.0000000   7.0000000   7.0000000   7.0000000   1.0000000
 Leave Link  101 at Tue Jul 21 14:56:05 2020, MaxMem=   268435456 cpu:         0.3
 (Enter /Applications/Gaussian/g09/l103.exe)

 GradGradGradGradGradGradGradGradGradGradGradGradGradGradGradGradGradGrad
 Berny optimization.
 Initialization pass.
                           ----------------------------
                           !    Initial Parameters    !
                           ! (Angstroms and Degrees)  !
 --------------------------                            --------------------------
 ! Name  Definition              Value          Derivative Info.                !
 --------------------------------------------------------------------------------
 ! R1    R(1,2)                  1.3772         estimate D2E/DX2                !
 ! R2    R(1,3)                  1.0882         estimate D2E/DX2                !
 ! R3    R(1,7)                  1.6722         estimate D2E/DX2                !
 ! R4    R(2,4)                  1.0915         estimate D2E/DX2                !
 ! R5    R(2,5)                  1.4321         estimate D2E/DX2                !
 ! R6    R(5,6)                  1.3772         estimate D2E/DX2                !
 ! R7    R(6,7)                  1.6722         estimate D2E/DX2                !
 ! R8    R(7,8)                  1.0            estimate D2E/DX2                !
 ! A1    A(2,1,3)              125.6782         estimate D2E/DX2                !
 ! A2    A(2,1,7)              111.5605         estimate D2E/DX2                !
 ! A3    A(3,1,7)              122.7613         estimate D2E/DX2                !
 ! A4    A(1,2,4)              125.3597         estimate D2E/DX2                !
 ! A5    A(1,2,5)              111.5216         estimate D2E/DX2                !
 ! A6    A(4,2,5)              123.1187         estimate D2E/DX2                !
 ! A7    A(2,5,6)              111.5245         estimate D2E/DX2                !
 ! A8    A(5,6,7)              111.5584         estimate D2E/DX2                !
 ! A9    A(1,7,6)               93.835          estimate D2E/DX2                !
 ! A10   A(1,7,8)              133.0825         estimate D2E/DX2                !
 ! A11   A(6,7,8)              133.0825         estimate D2E/DX2                !
 ! D1    D(3,1,2,4)             -0.0168         estimate D2E/DX2                !
 ! D2    D(3,1,2,5)            179.9669         estimate D2E/DX2                !
 ! D3    D(7,1,2,4)            179.9868         estimate D2E/DX2                !
 ! D4    D(7,1,2,5)             -0.0295         estimate D2E/DX2                !
 ! D5    D(2,1,7,6)              0.0124         estimate D2E/DX2                !
 ! D6    D(2,1,7,8)           -179.9876         estimate D2E/DX2                !
 ! D7    D(3,1,7,6)           -179.9841         estimate D2E/DX2                !
 ! D8    D(3,1,7,8)              0.0159         estimate D2E/DX2                !
 ! D9    D(1,2,5,6)              0.0362         estimate D2E/DX2                !
 ! D10   D(4,2,5,6)           -179.9797         estimate D2E/DX2                !
 ! D11   D(2,5,6,7)             -0.0269         estimate D2E/DX2                !
 ! D12   D(5,6,7,1)              0.0088         estimate D2E/DX2                !
 ! D13   D(5,6,7,8)           -179.9912         estimate D2E/DX2                !
 --------------------------------------------------------------------------------
 Trust Radius=3.00D-01 FncErr=1.00D-07 GrdErr=1.00D-06
 Number of steps in this run=     42 maximum allowed number of steps=    100.
 GradGradGradGradGradGradGradGradGradGradGradGradGradGradGradGradGradGrad

 Leave Link  103 at Tue Jul 21 14:56:05 2020, MaxMem=   268435456 cpu:         0.0
 (Enter /Applications/Gaussian/g09/l202.exe)
                          Input orientation:                          
 ---------------------------------------------------------------------
 Center     Atomic      Atomic             Coordinates (Angstroms)
 Number     Number       Type             X           Y           Z
 ---------------------------------------------------------------------
      1          6           0       -5.712925    1.852964    0.103786
      2          6           0       -4.382570    1.871724   -0.251961
      3          1           0       -6.353086    0.973135    0.120495
      4          1           0       -3.799626    1.003000   -0.563137
      5          7           0       -3.834449    3.192035   -0.166497
      6          7           0       -4.777782    4.104755    0.250310
      7          7           0       -6.258877    3.377312    0.521454
      8          1           0       -7.146217    3.726176    0.822986
 ---------------------------------------------------------------------
                    Distance matrix (angstroms):
                    1          2          3          4          5
     1  C    0.000000
     2  C    1.377226   0.000000
     3  H    1.088203   2.197526   0.000000
     4  H    2.197256   1.091483   2.643558   0.000000
     5  N    2.322678   1.432118   3.368889   2.224952   0.000000
     6  N    2.442646   2.322691   3.507916   3.352516   1.377194
     7  N    1.672168   2.526954   2.439203   3.586308   2.526946
     8  H    2.465867   3.497463   2.949879   4.531743   3.497455
                    6          7          8
     6  N    0.000000
     7  N    1.672225   0.000000
     8  H    2.465921   1.000000   0.000000
 Stoichiometry    C2H3N3
 Framework group  C1[X(C2H3N3)]
 Deg. of freedom    18
 Full point group                 C1      NOp   1
 Largest Abelian subgroup         C1      NOp   1
 Largest concise Abelian subgroup C1      NOp   1
                         Standard orientation:                         
 ---------------------------------------------------------------------
 Center     Atomic      Atomic             Coordinates (Angstroms)
 Number     Number       Type             X           Y           Z
 ---------------------------------------------------------------------
      1          6           0        0.017609    1.198501   -0.000088
      2          6           0       -1.150727    0.469295    0.000177
      3          1           0        0.087990    2.284426   -0.000403
      4          1           0       -2.157880    0.889983    0.000364
      5          7           0       -0.891013   -0.939077   -0.000200
      6          7           0        0.460527   -1.203653    0.000080
      7          7           0        1.362322    0.204573    0.000039
      8          1           0        2.345742    0.385916    0.000076
 ---------------------------------------------------------------------
 Rotational constants (GHZ):      8.5599228      7.6222890      4.0319709
 Leave Link  202 at Tue Jul 21 14:56:05 2020, MaxMem=   268435456 cpu:         0.0
 (Enter /Applications/Gaussian/g09/l301.exe)
 Standard basis: 6-31G(d) (6D, 7F)
 Ernie: Thresh=  0.10000D-02 Tol=  0.10000D-05 Strict=F.
 There are    81 symmetry adapted cartesian basis functions of A   symmetry.
 There are    81 symmetry adapted basis functions of A   symmetry.
    81 basis functions,   152 primitive gaussians,    81 cartesian basis functions
    18 alpha electrons       18 beta electrons
       nuclear repulsion energy       149.4209824325 Hartrees.
 IExCor=  402 DFT=T Ex+Corr=B3LYP ExCW=0 ScaHFX=  0.200000
 ScaDFX=  0.800000  0.720000  1.000000  0.810000 ScalE2=  1.000000  1.000000
 IRadAn=      0 IRanWt=     -1 IRanGd=            0 ICorTp=0 IEmpDi=  4
 NAtoms=    8 NActive=    8 NUniq=    8 SFac= 1.00D+00 NAtFMM=   60 NAOKFM=F Big=F
 Integral buffers will be    131072 words long.
 Raffenetti 2 integral format.
 Two-electron integral symmetry is turned on.
 Leave Link  301 at Tue Jul 21 14:56:05 2020, MaxMem=   268435456 cpu:         0.1
 (Enter /Applications/Gaussian/g09/l302.exe)
 NPDir=0 NMtPBC=     1 NCelOv=     1 NCel=       1 NClECP=     1 NCelD=      1
         NCelK=      1 NCelE2=     1 NClLst=     1 CellRange=     0.0.
 One-electron integrals computed using PRISM.
 NBasis=    81 RedAO= T EigKep=  2.74D-03  NBF=    81
 NBsUse=    81 1.00D-06 EigRej= -1.00D+00 NBFU=    81
 Precomputing XC quadrature grid using
 IXCGrd= 4 IRadAn=           0 IRanWt=          -1 IRanGd=           0 AccXCQ= 0.00D+00.
 Generated NRdTot=       0 NPtTot=           0 NUsed=           0 NTot=          32
 NSgBfM=    81    81    81    81    81 MxSgAt=     8 MxSgA2=     8.
 Leave Link  302 at Tue Jul 21 14:56:06 2020, MaxMem=   268435456 cpu:         0.3
 (Enter /Applications/Gaussian/g09/l303.exe)
 DipDrv:  MaxL=1.
 Leave Link  303 at Tue Jul 21 14:56:06 2020, MaxMem=   268435456 cpu:         0.1
 (Enter /Applications/Gaussian/g09/l401.exe)
 ExpMin= 1.61D-01 ExpMax= 4.17D+03 ExpMxC= 6.27D+02 IAcc=1 IRadAn=         1 AccDes= 0.00D+00
 Harris functional with IExCor=  402 and IRadAn=       1 diagonalized for initial guess.
 HarFok:  IExCor=  402 AccDes= 0.00D+00 IRadAn=         1 IDoV= 1 UseB2=F ITyADJ=14
 ICtDFT=  3500011 ScaDFX=  1.000000  1.000000  1.000000  1.000000
 FoFCou: FMM=F IPFlag=           0 FMFlag=      100000 FMFlg1=           0
         NFxFlg=           0 DoJE=T BraDBF=F KetDBF=T FulRan=T
         wScrn=  0.000000 ICntrl=     500 IOpCl=  0 I1Cent=   200000004 NGrid=           0
         NMat0=    1 NMatS0=      1 NMatT0=    0 NMatD0=    1 NMtDS0=    0 NMtDT0=    0
 Petite list used in FoFCou.
 Harris En= -242.079356003071    
 JPrj=0 DoOrth=F DoCkMO=F.
 Leave Link  401 at Tue Jul 21 14:56:06 2020, MaxMem=   268435456 cpu:         0.3
 (Enter /Applications/Gaussian/g09/l502.exe)
 Closed shell SCF:
 Using DIIS extrapolation, IDIIS=  1040.
 Integral symmetry usage will be decided dynamically.
 Keep R1 ints in memory in canonical form, NReq=6457725.
 IVT=       39328 IEndB=       39328 NGot=   268435456 MDV=   262879948
 LenX=   262879948 LenY=   262872946
 Requested convergence on RMS density matrix=1.00D-08 within 128 cycles.
 Requested convergence on MAX density matrix=1.00D-06.
 Requested convergence on             energy=1.00D-06.
 No special actions if energy rises.
 FoFCou: FMM=F IPFlag=           0 FMFlag=           0 FMFlg1=           0
         NFxFlg=           0 DoJE=F BraDBF=F KetDBF=F FulRan=T
         wScrn=  0.000000 ICntrl=     600 IOpCl=  0 I1Cent=           0 NGrid=           0
         NMat0=    1 NMatS0=   3321 NMatT0=    0 NMatD0=    1 NMtDS0=    0 NMtDT0=    0
 Symmetry not used in FoFCou.
 Integral accuracy reduced to 1.0D-05 until final iterations.

 Cycle   1  Pass 0  IDiag  1:
 E= -242.045631970858    
 DIIS: error= 2.13D-02 at cycle   1 NSaved=   1.
 NSaved= 1 IEnMin= 1 EnMin= -242.045631970858     IErMin= 1 ErrMin= 2.13D-02
 ErrMax= 2.13D-02  0.00D+00 EMaxC= 1.00D-01 BMatC= 6.49D-02 BMatP= 6.49D-02
 IDIUse=3 WtCom= 7.87D-01 WtEn= 2.13D-01
 Coeff-Com:  0.100D+01
 Coeff-En:   0.100D+01
 Coeff:      0.100D+01
 Gap=     0.190 Goal=   None    Shift=    0.000
 GapD=    0.190 DampG=1.000 DampE=0.500 DampFc=0.5000 IDamp=-1.
 Damping current iteration by 5.00D-01
 RMSDP=7.40D-03 MaxDP=1.49D-01              OVMax= 2.34D-01

 Cycle   2  Pass 0  IDiag  1:
 E= -242.038377233912     Delta-E=        0.007254736945 Rises=F Damp=T
 DIIS: error= 1.86D-02 at cycle   2 NSaved=   2.
 NSaved= 2 IEnMin= 1 EnMin= -242.045631970858     IErMin= 2 ErrMin= 1.86D-02
 ErrMax= 1.86D-02  0.00D+00 EMaxC= 1.00D-01 BMatC= 2.97D-02 BMatP= 6.49D-02
 IDIUse=3 WtCom= 8.14D-01 WtEn= 1.86D-01
 Coeff-Com:  0.362D+00 0.638D+00
 Coeff-En:   0.541D+00 0.459D+00
 Coeff:      0.396D+00 0.604D+00
 Gap=     0.198 Goal=   None    Shift=    0.000
 RMSDP=2.97D-03 MaxDP=7.27D-02 DE= 7.25D-03 OVMax= 2.10D-01

 Cycle   3  Pass 0  IDiag  1:
 E= -242.093317755264     Delta-E=       -0.054940521352 Rises=F Damp=F
 DIIS: error= 1.35D-02 at cycle   3 NSaved=   3.
 NSaved= 3 IEnMin= 3 EnMin= -242.093317755264     IErMin= 3 ErrMin= 1.35D-02
 ErrMax= 1.35D-02  0.00D+00 EMaxC= 1.00D-01 BMatC= 1.48D-02 BMatP= 2.97D-02
 IDIUse=3 WtCom= 8.65D-01 WtEn= 1.35D-01
 Coeff-Com:  0.715D-01 0.398D+00 0.531D+00
 Coeff-En:   0.000D+00 0.000D+00 0.100D+01
 Coeff:      0.618D-01 0.344D+00 0.594D+00
 Gap=     0.203 Goal=   None    Shift=    0.000
 RMSDP=1.75D-03 MaxDP=3.67D-02 DE=-5.49D-02 OVMax= 6.59D-02

 Cycle   4  Pass 0  IDiag  1:
 E= -242.102086652606     Delta-E=       -0.008768897342 Rises=F Damp=F
 DIIS: error= 6.75D-03 at cycle   4 NSaved=   4.
 NSaved= 4 IEnMin= 4 EnMin= -242.102086652606     IErMin= 4 ErrMin= 6.75D-03
 ErrMax= 6.75D-03  0.00D+00 EMaxC= 1.00D-01 BMatC= 5.45D-03 BMatP= 1.48D-02
 IDIUse=3 WtCom= 9.33D-01 WtEn= 6.75D-02
 Coeff-Com:  0.182D-01 0.134D+00 0.399D+00 0.450D+00
 Coeff-En:   0.000D+00 0.000D+00 0.303D+00 0.697D+00
 Coeff:      0.170D-01 0.125D+00 0.392D+00 0.466D+00
 Gap=     0.199 Goal=   None    Shift=    0.000
 RMSDP=8.99D-04 MaxDP=1.92D-02 DE=-8.77D-03 OVMax= 3.22D-02

 Cycle   5  Pass 0  IDiag  1:
 E= -242.105936955676     Delta-E=       -0.003850303070 Rises=F Damp=F
 DIIS: error= 4.35D-03 at cycle   5 NSaved=   5.
 NSaved= 5 IEnMin= 5 EnMin= -242.105936955676     IErMin= 5 ErrMin= 4.35D-03
 ErrMax= 4.35D-03  0.00D+00 EMaxC= 1.00D-01 BMatC= 8.58D-04 BMatP= 5.45D-03
 IDIUse=3 WtCom= 9.57D-01 WtEn= 4.35D-02
 Coeff-Com:  0.683D-02 0.387D-01 0.210D+00 0.349D+00 0.395D+00
 Coeff-En:   0.000D+00 0.000D+00 0.000D+00 0.167D+00 0.833D+00
 Coeff:      0.654D-02 0.370D-01 0.201D+00 0.341D+00 0.414D+00
 Gap=     0.199 Goal=   None    Shift=    0.000
 RMSDP=4.28D-04 MaxDP=7.59D-03 DE=-3.85D-03 OVMax= 1.63D-02

 Cycle   6  Pass 0  IDiag  1:
 E= -242.106644853077     Delta-E=       -0.000707897401 Rises=F Damp=F
 DIIS: error= 1.82D-03 at cycle   6 NSaved=   6.
 NSaved= 6 IEnMin= 6 EnMin= -242.106644853077     IErMin= 6 ErrMin= 1.82D-03
 ErrMax= 1.82D-03  0.00D+00 EMaxC= 1.00D-01 BMatC= 1.81D-04 BMatP= 8.58D-04
 IDIUse=3 WtCom= 9.82D-01 WtEn= 1.82D-02
 Coeff-Com:  0.727D-03 0.515D-02 0.875D-01 0.183D+00 0.326D+00 0.397D+00
 Coeff-En:   0.000D+00 0.000D+00 0.000D+00 0.000D+00 0.210D+00 0.790D+00
 Coeff:      0.713D-03 0.506D-02 0.859D-01 0.180D+00 0.324D+00 0.404D+00
 Gap=     0.200 Goal=   None    Shift=    0.000
 RMSDP=1.35D-04 MaxDP=3.22D-03 DE=-7.08D-04 OVMax= 5.33D-03

 Cycle   7  Pass 0  IDiag  1:
 E= -242.106813945950     Delta-E=       -0.000169092873 Rises=F Damp=F
 DIIS: error= 2.56D-04 at cycle   7 NSaved=   7.
 NSaved= 7 IEnMin= 7 EnMin= -242.106813945950     IErMin= 7 ErrMin= 2.56D-04
 ErrMax= 2.56D-04  0.00D+00 EMaxC= 1.00D-01 BMatC= 4.61D-06 BMatP= 1.81D-04
 IDIUse=3 WtCom= 9.97D-01 WtEn= 2.56D-03
 Coeff-Com: -0.248D-04-0.160D-02 0.301D-01 0.702D-01 0.148D+00 0.221D+00
 Coeff-Com:  0.532D+00
 Coeff-En:   0.000D+00 0.000D+00 0.000D+00 0.000D+00 0.000D+00 0.000D+00
 Coeff-En:   0.100D+01
 Coeff:     -0.248D-04-0.159D-02 0.300D-01 0.700D-01 0.147D+00 0.221D+00
 Coeff:      0.534D+00
 Gap=     0.200 Goal=   None    Shift=    0.000
 RMSDP=2.54D-05 MaxDP=4.49D-04 DE=-1.69D-04 OVMax= 7.99D-04

 Cycle   8  Pass 0  IDiag  1:
 E= -242.106817442737     Delta-E=       -0.000003496787 Rises=F Damp=F
 DIIS: error= 6.45D-05 at cycle   8 NSaved=   8.
 NSaved= 8 IEnMin= 8 EnMin= -242.106817442737     IErMin= 8 ErrMin= 6.45D-05
 ErrMax= 6.45D-05  0.00D+00 EMaxC= 1.00D-01 BMatC= 5.37D-07 BMatP= 4.61D-06
 IDIUse=1 WtCom= 1.00D+00 WtEn= 0.00D+00
 Coeff-Com: -0.337D-04-0.148D-02 0.132D-01 0.310D-01 0.690D-01 0.107D+00
 Coeff-Com:  0.327D+00 0.454D+00
 Coeff:     -0.337D-04-0.148D-02 0.132D-01 0.310D-01 0.690D-01 0.107D+00
 Coeff:      0.327D+00 0.454D+00
 Gap=     0.200 Goal=   None    Shift=    0.000
 RMSDP=8.56D-06 MaxDP=2.30D-04 DE=-3.50D-06 OVMax= 2.95D-04

 Initial convergence to 1.0D-05 achieved.  Increase integral accuracy.
 Cycle   9  Pass 1  IDiag  1:
 E= -242.106834768581     Delta-E=       -0.000017325844 Rises=F Damp=F
 DIIS: error= 1.92D-05 at cycle   1 NSaved=   1.
 NSaved= 1 IEnMin= 1 EnMin= -242.106834768581     IErMin= 1 ErrMin= 1.92D-05
 ErrMax= 1.92D-05  0.00D+00 EMaxC= 1.00D-01 BMatC= 4.71D-08 BMatP= 4.71D-08
 IDIUse=1 WtCom= 1.00D+00 WtEn= 0.00D+00
 Coeff-Com:  0.100D+01
 Coeff:      0.100D+01
 Gap=     0.200 Goal=   None    Shift=    0.000
 RMSDP=8.56D-06 MaxDP=2.30D-04 DE=-1.73D-05 OVMax= 1.98D-04

 Cycle  10  Pass 1  IDiag  1:
 E= -242.106834625470     Delta-E=        0.000000143111 Rises=F Damp=F
 DIIS: error= 4.61D-05 at cycle   2 NSaved=   2.
 NSaved= 2 IEnMin= 1 EnMin= -242.106834768581     IErMin= 1 ErrMin= 1.92D-05
 ErrMax= 4.61D-05  0.00D+00 EMaxC= 1.00D-01 BMatC= 2.00D-07 BMatP= 4.71D-08
 IDIUse=1 WtCom= 1.00D+00 WtEn= 0.00D+00
 Coeff-Com:  0.686D+00 0.314D+00
 Coeff:      0.686D+00 0.314D+00
 Gap=     0.200 Goal=   None    Shift=    0.000
 RMSDP=5.40D-06 MaxDP=9.54D-05 DE= 1.43D-07 OVMax= 1.83D-04

 Cycle  11  Pass 1  IDiag  1:
 E= -242.106834807595     Delta-E=       -0.000000182125 Rises=F Damp=F
 DIIS: error= 1.43D-05 at cycle   3 NSaved=   3.
 NSaved= 3 IEnMin= 3 EnMin= -242.106834807595     IErMin= 3 ErrMin= 1.43D-05
 ErrMax= 1.43D-05  0.00D+00 EMaxC= 1.00D-01 BMatC= 1.41D-08 BMatP= 4.71D-08
 IDIUse=1 WtCom= 1.00D+00 WtEn= 0.00D+00
 Coeff-Com:  0.346D+00 0.221D+00 0.433D+00
 Coeff:      0.346D+00 0.221D+00 0.433D+00
 Gap=     0.200 Goal=   None    Shift=    0.000
 RMSDP=1.50D-06 MaxDP=2.56D-05 DE=-1.82D-07 OVMax= 6.61D-05

 Cycle  12  Pass 1  IDiag  1:
 E= -242.106834818358     Delta-E=       -0.000000010763 Rises=F Damp=F
 DIIS: error= 6.23D-06 at cycle   4 NSaved=   4.
 NSaved= 4 IEnMin= 4 EnMin= -242.106834818358     IErMin= 4 ErrMin= 6.23D-06
 ErrMax= 6.23D-06  0.00D+00 EMaxC= 1.00D-01 BMatC= 2.47D-09 BMatP= 1.41D-08
 IDIUse=1 WtCom= 1.00D+00 WtEn= 0.00D+00
 Coeff-Com:  0.412D-01 0.713D-01 0.314D+00 0.574D+00
 Coeff:      0.412D-01 0.713D-01 0.314D+00 0.574D+00
 Gap=     0.200 Goal=   None    Shift=    0.000
 RMSDP=5.88D-07 MaxDP=1.55D-05 DE=-1.08D-08 OVMax= 2.83D-05

 Cycle  13  Pass 1  IDiag  1:
 E= -242.106834820464     Delta-E=       -0.000000002106 Rises=F Damp=F
 DIIS: error= 2.29D-06 at cycle   5 NSaved=   5.
 NSaved= 5 IEnMin= 5 EnMin= -242.106834820464     IErMin= 5 ErrMin= 2.29D-06
 ErrMax= 2.29D-06  0.00D+00 EMaxC= 1.00D-01 BMatC= 3.98D-10 BMatP= 2.47D-09
 IDIUse=1 WtCom= 1.00D+00 WtEn= 0.00D+00
 Coeff-Com: -0.109D-01 0.216D-01 0.147D+00 0.375D+00 0.467D+00
 Coeff:     -0.109D-01 0.216D-01 0.147D+00 0.375D+00 0.467D+00
 Gap=     0.200 Goal=   None    Shift=    0.000
 RMSDP=2.26D-07 MaxDP=4.86D-06 DE=-2.11D-09 OVMax= 6.41D-06

 Cycle  14  Pass 1  IDiag  1:
 E= -242.106834820756     Delta-E=       -0.000000000292 Rises=F Damp=F
 DIIS: error= 8.56D-07 at cycle   6 NSaved=   6.
 NSaved= 6 IEnMin= 6 EnMin= -242.106834820756     IErMin= 6 ErrMin= 8.56D-07
 ErrMax= 8.56D-07  0.00D+00 EMaxC= 1.00D-01 BMatC= 6.49D-11 BMatP= 3.98D-10
 IDIUse=1 WtCom= 1.00D+00 WtEn= 0.00D+00
 Coeff-Com: -0.113D-01 0.916D-02 0.755D-01 0.220D+00 0.334D+00 0.373D+00
 Coeff:     -0.113D-01 0.916D-02 0.755D-01 0.220D+00 0.334D+00 0.373D+00
 Gap=     0.200 Goal=   None    Shift=    0.000
 RMSDP=9.85D-08 MaxDP=2.36D-06 DE=-2.92D-10 OVMax= 5.16D-06

 Cycle  15  Pass 1  IDiag  1:
 E= -242.106834820816     Delta-E=       -0.000000000060 Rises=F Damp=F
 DIIS: error= 2.34D-07 at cycle   7 NSaved=   7.
 NSaved= 7 IEnMin= 7 EnMin= -242.106834820816     IErMin= 7 ErrMin= 2.34D-07
 ErrMax= 2.34D-07  0.00D+00 EMaxC= 1.00D-01 BMatC= 5.30D-12 BMatP= 6.49D-11
 IDIUse=1 WtCom= 1.00D+00 WtEn= 0.00D+00
 Coeff-Com: -0.447D-02 0.190D-02 0.183D-01 0.710D-01 0.115D+00 0.239D+00
 Coeff-Com:  0.559D+00
 Coeff:     -0.447D-02 0.190D-02 0.183D-01 0.710D-01 0.115D+00 0.239D+00
 Coeff:      0.559D+00
 Gap=     0.200 Goal=   None    Shift=    0.000
 RMSDP=3.58D-08 MaxDP=5.49D-07 DE=-5.99D-11 OVMax= 9.94D-07

 Cycle  16  Pass 1  IDiag  1:
 E= -242.106834820819     Delta-E=       -0.000000000003 Rises=F Damp=F
 DIIS: error= 1.09D-07 at cycle   8 NSaved=   8.
 NSaved= 8 IEnMin= 8 EnMin= -242.106834820819     IErMin= 8 ErrMin= 1.09D-07
 ErrMax= 1.09D-07  0.00D+00 EMaxC= 1.00D-01 BMatC= 1.06D-12 BMatP= 5.30D-12
 IDIUse=1 WtCom= 1.00D+00 WtEn= 0.00D+00
 Coeff-Com:  0.913D-06-0.118D-02-0.962D-02-0.109D-01-0.162D-01 0.672D-01
 Coeff-Com:  0.368D+00 0.602D+00
 Coeff:      0.913D-06-0.118D-02-0.962D-02-0.109D-01-0.162D-01 0.672D-01
 Coeff:      0.368D+00 0.602D+00
 Gap=     0.200 Goal=   None    Shift=    0.000
 RMSDP=1.42D-08 MaxDP=2.08D-07 DE=-2.56D-12 OVMax= 5.87D-07

 Cycle  17  Pass 1  IDiag  1:
 E= -242.106834820819     Delta-E=        0.000000000000 Rises=F Damp=F
 DIIS: error= 1.33D-08 at cycle   9 NSaved=   9.
 NSaved= 9 IEnMin= 9 EnMin= -242.106834820819     IErMin= 9 ErrMin= 1.33D-08
 ErrMax= 1.33D-08  0.00D+00 EMaxC= 1.00D-01 BMatC= 1.52D-14 BMatP= 1.06D-12
 IDIUse=1 WtCom= 1.00D+00 WtEn= 0.00D+00
 Coeff-Com:  0.337D-03-0.326D-03-0.358D-02-0.739D-02-0.124D-01-0.386D-02
 Coeff-Com:  0.196D-01 0.982D-01 0.909D+00
 Coeff:      0.337D-03-0.326D-03-0.358D-02-0.739D-02-0.124D-01-0.386D-02
 Coeff:      0.196D-01 0.982D-01 0.909D+00
 Gap=     0.200 Goal=   None    Shift=    0.000
 RMSDP=2.65D-09 MaxDP=4.24D-08 DE=-2.84D-13 OVMax= 8.18D-08

 SCF Done:  E(RB3LYP) =  -242.106834821     A.U. after   17 cycles
            NFock= 17  Conv=0.27D-08     -V/T= 2.0138
 KE= 2.388053501636D+02 PE=-8.619014489299D+02 EE= 2.315682815130D+02
 Leave Link  502 at Tue Jul 21 14:56:09 2020, MaxMem=   268435456 cpu:         6.1
 (Enter /Applications/Gaussian/g09/l601.exe)
 Copying SCF densities to generalized density rwf, IOpCl= 0 IROHF=0.

 **********************************************************************

            Population analysis using the SCF density.

 **********************************************************************

 Orbital symmetries:
       Occupied  (A) (A) (A) (A) (A) (A) (A) (A) (A) (A) (A) (A)
                 (A) (A) (A) (A) (A) (A)
       Virtual   (A) (A) (A) (A) (A) (A) (A) (A) (A) (A) (A) (A)
                 (A) (A) (A) (A) (A) (A) (A) (A) (A) (A) (A) (A)
                 (A) (A) (A) (A) (A) (A) (A) (A) (A) (A) (A) (A)
                 (A) (A) (A) (A) (A) (A) (A) (A) (A) (A) (A) (A)
                 (A) (A) (A) (A) (A) (A) (A) (A) (A) (A) (A) (A)
                 (A) (A) (A)
 The electronic state is 1-A.
 Alpha  occ. eigenvalues --  -14.43126 -14.40837 -14.39760 -10.27062 -10.24277
 Alpha  occ. eigenvalues --   -0.98880  -0.84447  -0.78080  -0.66081  -0.56227
 Alpha  occ. eigenvalues --   -0.53362  -0.46965  -0.42109  -0.40212  -0.33294
 Alpha  occ. eigenvalues --   -0.29264  -0.28085  -0.26675
 Alpha virt. eigenvalues --   -0.06683   0.00329   0.02773   0.03800   0.10833
 Alpha virt. eigenvalues --    0.12901   0.16496   0.19980   0.31152   0.36374
 Alpha virt. eigenvalues --    0.48613   0.53312   0.55682   0.57839   0.61585
 Alpha virt. eigenvalues --    0.63353   0.64886   0.68967   0.71155   0.76552
 Alpha virt. eigenvalues --    0.78963   0.80957   0.81747   0.83520   0.88686
 Alpha virt. eigenvalues --    0.89583   0.96983   0.99969   1.02304   1.11064
 Alpha virt. eigenvalues --    1.22033   1.33532   1.39285   1.43429   1.44174
 Alpha virt. eigenvalues --    1.50421   1.52303   1.53998   1.56623   1.63440
 Alpha virt. eigenvalues --    1.66639   1.91898   1.94392   1.98363   1.99331
 Alpha virt. eigenvalues --    2.05854   2.08141   2.17616   2.23374   2.29590
 Alpha virt. eigenvalues --    2.44777   2.50131   2.53838   2.59565   2.61496
 Alpha virt. eigenvalues --    2.68829   2.86127   2.93113   3.43127   3.73126
 Alpha virt. eigenvalues --    3.88980   4.08919   4.30195
          Condensed to atoms (all electrons):
               1          2          3          4          5          6
     1  C    4.923015   0.566055   0.348704  -0.044830  -0.030145  -0.056332
     2  C    0.566055   4.909650  -0.037181   0.373265   0.269260  -0.049934
     3  H    0.348704  -0.037181   0.528951   0.000825   0.004083   0.002562
     4  H   -0.044830   0.373265   0.000825   0.514654  -0.032175   0.003359
     5  N   -0.030145   0.269260   0.004083  -0.032175   6.778109   0.271401
     6  N   -0.056332  -0.049934   0.002562   0.003359   0.271401   6.749523
     7  N    0.297554  -0.048610  -0.026796   0.002033  -0.042748   0.108151
     8  H   -0.013265   0.002370   0.000793  -0.000047   0.001348  -0.003817
               7          8
     1  C    0.297554  -0.013265
     2  C   -0.048610   0.002370
     3  H   -0.026796   0.000793
     4  H    0.002033  -0.000047
     5  N   -0.042748   0.001348
     6  N    0.108151  -0.003817
     7  N    6.924231   0.289230
     8  H    0.289230   0.361642
 Mulliken charges:
               1
     1  C    0.009245
     2  C    0.015124
     3  H    0.178059
     4  H    0.182917
     5  N   -0.219133
     6  N   -0.024914
     7  N   -0.503044
     8  H    0.361747
 Sum of Mulliken charges =   0.00000
 Mulliken charges with hydrogens summed into heavy atoms:
               1
     1  C    0.187304
     2  C    0.198040
     5  N   -0.219133
     6  N   -0.024914
     7  N   -0.141298
 Electronic spatial extent (au):  <R**2>=            313.7922
 Charge=              0.0000 electrons
 Dipole moment (field-independent basis, Debye):
    X=              0.8103    Y=              3.7022    Z=              0.0001  Tot=              3.7899
 Quadrupole moment (field-independent basis, Debye-Ang):
   XX=            -21.8045   YY=            -29.1006   ZZ=            -30.8304
   XY=             -0.4572   XZ=             -0.0007   YZ=             -0.0009
 Traceless Quadrupole moment (field-independent basis, Debye-Ang):
   XX=              5.4407   YY=             -1.8555   ZZ=             -3.5852
   XY=             -0.4572   XZ=             -0.0007   YZ=             -0.0009
 Octapole moment (field-independent basis, Debye-Ang**2):
  XXX=             13.9856  YYY=             12.4428  ZZZ=             -0.0004  XYY=              0.9353
  XXY=              7.4205  XXZ=              0.0027  XZZ=              0.3192  YZZ=             -1.3822
  YYZ=             -0.0019  XYZ=             -0.0006
 Hexadecapole moment (field-independent basis, Debye-Ang**3):
 XXXX=           -136.1238 YYYY=           -173.2038 ZZZZ=            -29.1418 XXXY=             -0.5094
 XXXZ=             -0.0018 YYYX=              1.0741 YYYZ=             -0.0050 ZZZX=              0.0002
 ZZZY=             -0.0005 XXYY=            -64.5587 XXZZ=            -40.2736 YYZZ=            -37.1125
 XXYZ=              0.0008 YYXZ=             -0.0015 ZZXY=              0.5279
 N-N= 1.494209824325D+02 E-N=-8.619014484089D+02  KE= 2.388053501636D+02
 No NMR shielding tensors so no spin-rotation constants.
 Leave Link  601 at Tue Jul 21 14:56:09 2020, MaxMem=   268435456 cpu:         0.2
 (Enter /Applications/Gaussian/g09/l701.exe)
 Compute integral first derivatives.
 ... and contract with generalized density number  0.
 Leave Link  701 at Tue Jul 21 14:56:09 2020, MaxMem=   268435456 cpu:         0.2
 (Enter /Applications/Gaussian/g09/l702.exe)
 L702 exits ... SP integral derivatives will be done elsewhere.
 Leave Link  702 at Tue Jul 21 14:56:09 2020, MaxMem=   268435456 cpu:         0.0
 (Enter /Applications/Gaussian/g09/l703.exe)
 Compute integral first derivatives, UseDBF=F ICtDFT=           0.
 Integral derivatives from FoFJK, PRISM(SPDF).
 Calling FoFJK, ICntrl=      2127 FMM=F ISym2X=0 I1Cent= 0 IOpClX= 0 NMat=1 NMatS=1 NMatT=0.
 FoFJK:  IHMeth= 1 ICntrl=    2127 DoSepK=F KAlg= 0 I1Cent=   0 FoldK=F
 IRaf=         0 NMat=   1 IRICut=       1 DoRegI=T DoRafI=F ISym2E= 0.
 FoFCou: FMM=F IPFlag=           0 FMFlag=      100000 FMFlg1=         800
         NFxFlg=           0 DoJE=F BraDBF=F KetDBF=F FulRan=T
         wScrn=  0.000000 ICntrl=    2127 IOpCl=  0 I1Cent=           0 NGrid=           0
         NMat0=    1 NMatS0=      1 NMatT0=    0 NMatD0=    1 NMtDS0=    0 NMtDT0=    0
 Symmetry not used in FoFCou.
 Leave Link  703 at Tue Jul 21 14:56:10 2020, MaxMem=   268435456 cpu:         1.6
 (Enter /Applications/Gaussian/g09/l716.exe)
 Dipole        = 3.18782745D-01 1.45656594D+00 3.98991915D-05
 ***** Axes restored to original set *****
 -------------------------------------------------------------------
 Center     Atomic                   Forces (Hartrees/Bohr)
 Number     Number              X              Y              Z
 -------------------------------------------------------------------
      1        6          -0.030894491    0.070245867    0.020820258
      2        6          -0.028921185    0.043876385    0.015522006
      3        1          -0.004117886    0.008943101    0.002711715
      4        1          -0.000464875    0.009170684    0.001737387
      5        7          -0.098782882    0.032393712    0.032524355
      6        7           0.009690171   -0.061699859   -0.013605209
      7        7           0.163392742   -0.109696200   -0.063586173
      8        1          -0.009901593    0.006766310    0.003875662
 -------------------------------------------------------------------
 Cartesian Forces:  Max     0.163392742 RMS     0.053385459
 Leave Link  716 at Tue Jul 21 14:56:10 2020, MaxMem=   268435456 cpu:         0.1
 (Enter /Applications/Gaussian/g09/l103.exe)

 GradGradGradGradGradGradGradGradGradGradGradGradGradGradGradGradGradGrad
 Berny optimization.
 FormGI is forming the generalized inverse of G from B-inverse, IUseBI=4.
 Internal  Forces:  Max     0.129625391 RMS     0.037218623
 Search for a local minimum.
 Step number   1 out of a maximum of   42
 All quantities printed in internal units (Hartrees-Bohrs-Radians)
 RMS Force = .37219D-01 SwitMx=.10000D-02 MixMth= 1
 Mixed Optimization -- RFO/linear search
 Second derivative matrix not updated -- first step.
 ITU=  0
     Eigenvalues ---    0.00230   0.00813   0.01277   0.01614   0.02066
     Eigenvalues ---    0.16000   0.16000   0.16000   0.19670   0.19697
     Eigenvalues ---    0.22150   0.24106   0.34642   0.35021   0.39291
     Eigenvalues ---    0.46386   0.47688   0.49154
 RFO step:  Lambda=-1.16379028D-01 EMin= 2.30000000D-03
 Linear search not attempted -- first point.
 Maximum step size (   0.300) exceeded in Quadratic search.
    -- Step size scaled by   0.524
 Iteration  1 RMS(Cart)=  0.05895672 RMS(Int)=  0.00272044
 Iteration  2 RMS(Cart)=  0.00307990 RMS(Int)=  0.00068438
 Iteration  3 RMS(Cart)=  0.00000329 RMS(Int)=  0.00068438
 Iteration  4 RMS(Cart)=  0.00000000 RMS(Int)=  0.00068438
 ITry= 1 IFail=0 DXMaxC= 1.50D-01 DCOld= 1.00D+10 DXMaxT= 3.00D-01 DXLimC= 3.00D+00 Rises=F
 Variable       Old X    -DE/DX   Delta X   Delta X   Delta X     New X
                                 (Linear)    (Quad)   (Total)
    R1        2.60258  -0.04335   0.00000  -0.03609  -0.03671   2.56587
    R2        2.05641  -0.00477   0.00000  -0.00536  -0.00536   2.05105
    R3        3.15994  -0.12963   0.00000  -0.21162  -0.21095   2.94899
    R4        2.06260  -0.00804   0.00000  -0.00911  -0.00911   2.05349
    R5        2.70631  -0.03039   0.00000  -0.03391  -0.03498   2.67133
    R6        2.60252  -0.11005   0.00000  -0.09738  -0.09756   2.50496
    R7        3.16005  -0.07248   0.00000  -0.12120  -0.12022   3.03982
    R8        1.88973   0.01232   0.00000   0.01088   0.01088   1.90061
    A1        2.19350   0.02766   0.00000   0.04186   0.04181   2.23531
    A2        1.94710  -0.03676   0.00000  -0.04848  -0.04838   1.89871
    A3        2.14259   0.00909   0.00000   0.00662   0.00657   2.14916
    A4        2.18794   0.00217   0.00000   0.00629   0.00702   2.19496
    A5        1.94642   0.00547   0.00000   0.00605   0.00458   1.95100
    A6        2.14883  -0.00764   0.00000  -0.01234  -0.01160   2.13722
    A7        1.94647   0.01334   0.00000   0.00548   0.00389   1.95036
    A8        1.94706  -0.03140   0.00000  -0.05020  -0.04906   1.89800
    A9        1.63773   0.04934   0.00000   0.08715   0.08897   1.72670
   A10        2.32273  -0.02214   0.00000  -0.03877  -0.03968   2.28305
   A11        2.32273  -0.02720   0.00000  -0.04838  -0.04929   2.27344
    D1       -0.00029   0.00000   0.00000   0.00000   0.00000  -0.00029
    D2        3.14101   0.00002   0.00000   0.00007   0.00007   3.14109
    D3        3.14136   0.00001   0.00000   0.00003   0.00003   3.14139
    D4       -0.00052   0.00003   0.00000   0.00010   0.00010  -0.00041
    D5        0.00022  -0.00001   0.00000  -0.00004  -0.00004   0.00018
    D6       -3.14138  -0.00001   0.00000  -0.00003  -0.00003  -3.14141
    D7       -3.14132   0.00000   0.00000  -0.00001  -0.00001  -3.14133
    D8        0.00028   0.00000   0.00000   0.00000   0.00000   0.00027
    D9        0.00063  -0.00002   0.00000  -0.00011  -0.00011   0.00052
   D10       -3.14124   0.00000   0.00000  -0.00004  -0.00004  -3.14128
   D11       -0.00047   0.00003   0.00000   0.00010   0.00010  -0.00037
   D12        0.00015  -0.00001   0.00000  -0.00003  -0.00003   0.00012
   D13       -3.14144  -0.00001   0.00000  -0.00004  -0.00004  -3.14148
         Item               Value     Threshold  Converged?
 Maximum Force            0.129625     0.000450     NO 
 RMS     Force            0.037219     0.000300     NO 
 Maximum Displacement     0.150427     0.001800     NO 
 RMS     Displacement     0.060445     0.001200     NO 
 Predicted change in Energy=-5.022725D-02
 Lowest energy point so far.  Saving SCF results.
 GradGradGradGradGradGradGradGradGradGradGradGradGradGradGradGradGradGrad

 Leave Link  103 at Tue Jul 21 14:56:10 2020, MaxMem=   268435456 cpu:         0.0
 (Enter /Applications/Gaussian/g09/l202.exe)
                          Input orientation:                          
 ---------------------------------------------------------------------
 Center     Atomic      Atomic             Coordinates (Angstroms)
 Number     Number       Type             X           Y           Z
 ---------------------------------------------------------------------
      1          6           0       -5.725430    1.870085    0.110212
      2          6           0       -4.413515    1.901204   -0.238404
      3          1           0       -6.390527    1.012813    0.137673
      4          1           0       -3.818828    1.046833   -0.550221
      5          7           0       -3.878551    3.206811   -0.151905
      6          7           0       -4.787400    4.084399    0.249291
      7          7           0       -6.179275    3.314377    0.488786
      8          1           0       -7.072007    3.664578    0.792005
 ---------------------------------------------------------------------
                    Distance matrix (angstroms):
                    1          2          3          4          5
     1  C    0.000000
     2  C    1.357800   0.000000
     3  H    1.085368   2.199830   0.000000
     4  H    2.179230   1.086661   2.662328   0.000000
     5  N    2.294886   1.413605   3.347762   2.197209   0.000000
     6  N    2.408824   2.268034   3.466572   3.286968   1.325566
     7  N    1.560536   2.375662   2.337757   3.434093   2.390687
     8  H    2.344849   3.352433   2.815035   4.386038   3.361350
                    6          7          8
     6  N    0.000000
     7  N    1.608604   0.000000
     8  H    2.385418   1.005760   0.000000
 Stoichiometry    C2H3N3
 Framework group  C1[X(C2H3N3)]
 Deg. of freedom    18
 Full point group                 C1      NOp   1
 RotChk:  IX=0 Diff= 1.11D-01
 Largest Abelian subgroup         C1      NOp   1
 Largest concise Abelian subgroup C1      NOp   1
                         Standard orientation:                         
 ---------------------------------------------------------------------
 Center     Atomic      Atomic             Coordinates (Angstroms)
 Number     Number       Type             X           Y           Z
 ---------------------------------------------------------------------
      1          6           0        0.132758    1.178868   -0.000068
      2          6           0       -1.066115    0.541431    0.000140
      3          1           0        0.322616    2.247501   -0.000354
      4          1           0       -2.040808    1.021852    0.000307
      5          7           0       -0.913067   -0.863865   -0.000163
      6          7           0        0.364090   -1.218823    0.000061
      7          7           0        1.270111    0.110363    0.000035
      8          1           0        2.270400    0.215124    0.000080
 ---------------------------------------------------------------------
 Rotational constants (GHZ):      8.8188664      8.4525262      4.3159056
 Leave Link  202 at Tue Jul 21 14:56:10 2020, MaxMem=   268435456 cpu:         0.0
 (Enter /Applications/Gaussian/g09/l301.exe)
 Standard basis: 6-31G(d) (6D, 7F)
 Ernie: Thresh=  0.10000D-02 Tol=  0.10000D-05 Strict=F.
 There are    81 symmetry adapted cartesian basis functions of A   symmetry.
 There are    81 symmetry adapted basis functions of A   symmetry.
    81 basis functions,   152 primitive gaussians,    81 cartesian basis functions
    18 alpha electrons       18 beta electrons
       nuclear repulsion energy       154.1330918230 Hartrees.
 IExCor=  402 DFT=T Ex+Corr=B3LYP ExCW=0 ScaHFX=  0.200000
 ScaDFX=  0.800000  0.720000  1.000000  0.810000 ScalE2=  1.000000  1.000000
 IRadAn=      0 IRanWt=     -1 IRanGd=            0 ICorTp=0 IEmpDi=  4
 NAtoms=    8 NActive=    8 NUniq=    8 SFac= 1.00D+00 NAtFMM=   60 NAOKFM=F Big=F
 Integral buffers will be    131072 words long.
 Raffenetti 2 integral format.
 Two-electron integral symmetry is turned on.
 Leave Link  301 at Tue Jul 21 14:56:10 2020, MaxMem=   268435456 cpu:         0.1
 (Enter /Applications/Gaussian/g09/l302.exe)
 NPDir=0 NMtPBC=     1 NCelOv=     1 NCel=       1 NClECP=     1 NCelD=      1
         NCelK=      1 NCelE2=     1 NClLst=     1 CellRange=     0.0.
 One-electron integrals computed using PRISM.
 NBasis=    81 RedAO= T EigKep=  2.26D-03  NBF=    81
 NBsUse=    81 1.00D-06 EigRej= -1.00D+00 NBFU=    81
 Precomputing XC quadrature grid using
 IXCGrd= 4 IRadAn=           0 IRanWt=          -1 IRanGd=           0 AccXCQ= 0.00D+00.
 Generated NRdTot=       0 NPtTot=           0 NUsed=           0 NTot=          32
 NSgBfM=    81    81    81    81    81 MxSgAt=     8 MxSgA2=     8.
 Leave Link  302 at Tue Jul 21 14:56:10 2020, MaxMem=   268435456 cpu:         0.2
 (Enter /Applications/Gaussian/g09/l303.exe)
 DipDrv:  MaxL=1.
 Leave Link  303 at Tue Jul 21 14:56:11 2020, MaxMem=   268435456 cpu:         0.1
 (Enter /Applications/Gaussian/g09/l401.exe)
 Initial guess from the checkpoint file:  "triazole.chk"
 B after Tr=     0.000000    0.000000    0.000000
         Rot=    0.999305    0.000000    0.000002    0.037288 Ang=  -4.27 deg.
 Guess basis will be translated and rotated to current coordinates.
 JPrj=2 DoOrth=T DoCkMO=T.
 Generating alternative initial guess.
 ExpMin= 1.61D-01 ExpMax= 4.17D+03 ExpMxC= 6.27D+02 IAcc=1 IRadAn=         1 AccDes= 0.00D+00
 Harris functional with IExCor=  402 and IRadAn=       1 diagonalized for initial guess.
 HarFok:  IExCor=  402 AccDes= 0.00D+00 IRadAn=         1 IDoV= 1 UseB2=F ITyADJ=14
 ICtDFT=  3500011 ScaDFX=  1.000000  1.000000  1.000000  1.000000
 FoFCou: FMM=F IPFlag=           0 FMFlag=      100000 FMFlg1=           0
         NFxFlg=           0 DoJE=T BraDBF=F KetDBF=T FulRan=T
         wScrn=  0.000000 ICntrl=     500 IOpCl=  0 I1Cent=   200000004 NGrid=           0
         NMat0=    1 NMatS0=      1 NMatT0=    0 NMatD0=    1 NMtDS0=    0 NMtDT0=    0
 Petite list used in FoFCou.
 Harris En= -242.129897131942    
 Leave Link  401 at Tue Jul 21 14:56:11 2020, MaxMem=   268435456 cpu:         0.4
 (Enter /Applications/Gaussian/g09/l502.exe)
 Closed shell SCF:
 Using DIIS extrapolation, IDIIS=  1040.
 Integral symmetry usage will be decided dynamically.
 Keep R1 ints in memory in canonical form, NReq=6457725.
 IVT=       39328 IEndB=       39328 NGot=   268435456 MDV=   262879948
 LenX=   262879948 LenY=   262872946
 Requested convergence on RMS density matrix=1.00D-08 within 128 cycles.
 Requested convergence on MAX density matrix=1.00D-06.
 Requested convergence on             energy=1.00D-06.
 No special actions if energy rises.
 FoFCou: FMM=F IPFlag=           0 FMFlag=           0 FMFlg1=           0
         NFxFlg=           0 DoJE=F BraDBF=F KetDBF=F FulRan=T
         wScrn=  0.000000 ICntrl=     600 IOpCl=  0 I1Cent=           0 NGrid=           0
         NMat0=    1 NMatS0=   3321 NMatT0=    0 NMatD0=    1 NMtDS0=    0 NMtDT0=    0
 Symmetry not used in FoFCou.
 Integral accuracy reduced to 1.0D-05 until final iterations.

 Cycle   1  Pass 0  IDiag  1:
 E= -242.156943185041    
 DIIS: error= 4.18D-03 at cycle   1 NSaved=   1.
 NSaved= 1 IEnMin= 1 EnMin= -242.156943185041     IErMin= 1 ErrMin= 4.18D-03
 ErrMax= 4.18D-03  0.00D+00 EMaxC= 1.00D-01 BMatC= 3.19D-03 BMatP= 3.19D-03
 IDIUse=3 WtCom= 9.58D-01 WtEn= 4.18D-02
 Coeff-Com:  0.100D+01
 Coeff-En:   0.100D+01
 Coeff:      0.100D+01
 Gap=     1.879 Goal=   None    Shift=    0.000
 GapD=    1.879 DampG=2.000 DampE=1.000 DampFc=2.0000 IDamp=-1.
 RMSDP=1.30D-03 MaxDP=1.44D-02              OVMax= 2.21D-02

 Cycle   2  Pass 0  IDiag  1:
 E= -242.161029576675     Delta-E=       -0.004086391635 Rises=F Damp=F
 DIIS: error= 2.02D-03 at cycle   2 NSaved=   2.
 NSaved= 2 IEnMin= 2 EnMin= -242.161029576675     IErMin= 2 ErrMin= 2.02D-03
 ErrMax= 2.02D-03  0.00D+00 EMaxC= 1.00D-01 BMatC= 7.11D-04 BMatP= 3.19D-03
 IDIUse=3 WtCom= 9.80D-01 WtEn= 2.02D-02
 Coeff-Com:  0.240D+00 0.760D+00
 Coeff-En:   0.000D+00 0.100D+01
 Coeff:      0.235D+00 0.765D+00
 Gap=     0.217 Goal=   None    Shift=    0.000
 RMSDP=6.40D-04 MaxDP=1.18D-02 DE=-4.09D-03 OVMax= 2.07D-02

 Cycle   3  Pass 0  IDiag  1:
 E= -242.160351821034     Delta-E=        0.000677755641 Rises=F Damp=F
 DIIS: error= 3.41D-03 at cycle   3 NSaved=   3.
 NSaved= 3 IEnMin= 2 EnMin= -242.161029576675     IErMin= 2 ErrMin= 2.02D-03
 ErrMax= 3.41D-03  0.00D+00 EMaxC= 1.00D-01 BMatC= 1.43D-03 BMatP= 7.11D-04
 IDIUse=3 WtCom= 1.46D-01 WtEn= 8.54D-01
 Coeff-Com:  0.299D-01 0.583D+00 0.387D+00
 Coeff-En:   0.000D+00 0.638D+00 0.362D+00
 Coeff:      0.437D-02 0.630D+00 0.366D+00
 Gap=     0.217 Goal=   None    Shift=    0.000
 RMSDP=4.29D-04 MaxDP=7.17D-03 DE= 6.78D-04 OVMax= 1.67D-02

 Cycle   4  Pass 0  IDiag  1:
 E= -242.161615097791     Delta-E=       -0.001263276757 Rises=F Damp=F
 DIIS: error= 9.69D-04 at cycle   4 NSaved=   4.
 NSaved= 4 IEnMin= 4 EnMin= -242.161615097791     IErMin= 4 ErrMin= 9.69D-04
 ErrMax= 9.69D-04  0.00D+00 EMaxC= 1.00D-01 BMatC= 7.01D-05 BMatP= 7.11D-04
 IDIUse=3 WtCom= 9.90D-01 WtEn= 9.69D-03
 Coeff-Com: -0.186D-01 0.290D+00 0.215D+00 0.514D+00
 Coeff-En:   0.000D+00 0.000D+00 0.000D+00 0.100D+01
 Coeff:     -0.185D-01 0.287D+00 0.213D+00 0.519D+00
 Gap=     0.216 Goal=   None    Shift=    0.000
 RMSDP=1.15D-04 MaxDP=1.45D-03 DE=-1.26D-03 OVMax= 2.41D-03

 Cycle   5  Pass 0  IDiag  1:
 E= -242.161681183786     Delta-E=       -0.000066085995 Rises=F Damp=F
 DIIS: error= 1.91D-04 at cycle   5 NSaved=   5.
 NSaved= 5 IEnMin= 5 EnMin= -242.161681183786     IErMin= 5 ErrMin= 1.91D-04
 ErrMax= 1.91D-04  0.00D+00 EMaxC= 1.00D-01 BMatC= 3.91D-06 BMatP= 7.01D-05
 IDIUse=3 WtCom= 9.98D-01 WtEn= 1.91D-03
 Coeff-Com: -0.113D-01 0.137D+00 0.107D+00 0.291D+00 0.476D+00
 Coeff-En:   0.000D+00 0.000D+00 0.000D+00 0.000D+00 0.100D+01
 Coeff:     -0.112D-01 0.137D+00 0.107D+00 0.290D+00 0.477D+00
 Gap=     0.216 Goal=   None    Shift=    0.000
 RMSDP=2.71D-05 MaxDP=5.50D-04 DE=-6.61D-05 OVMax= 1.08D-03

 Cycle   6  Pass 0  IDiag  1:
 E= -242.161683835668     Delta-E=       -0.000002651882 Rises=F Damp=F
 DIIS: error= 9.90D-05 at cycle   6 NSaved=   6.
 NSaved= 6 IEnMin= 6 EnMin= -242.161683835668     IErMin= 6 ErrMin= 9.90D-05
 ErrMax= 9.90D-05  0.00D+00 EMaxC= 1.00D-01 BMatC= 1.14D-06 BMatP= 3.91D-06
 IDIUse=1 WtCom= 1.00D+00 WtEn= 0.00D+00
 Coeff-Com: -0.321D-02 0.313D-01 0.278D-01 0.922D-01 0.348D+00 0.504D+00
 Coeff:     -0.321D-02 0.313D-01 0.278D-01 0.922D-01 0.348D+00 0.504D+00
 Gap=     0.216 Goal=   None    Shift=    0.000
 RMSDP=1.32D-05 MaxDP=2.77D-04 DE=-2.65D-06 OVMax= 5.47D-04

 Cycle   7  Pass 0  IDiag  1:
 E= -242.161684723829     Delta-E=       -0.000000888160 Rises=F Damp=F
 DIIS: error= 3.46D-05 at cycle   7 NSaved=   7.
 NSaved= 7 IEnMin= 7 EnMin= -242.161684723829     IErMin= 7 ErrMin= 3.46D-05
 ErrMax= 3.46D-05  0.00D+00 EMaxC= 1.00D-01 BMatC= 1.44D-07 BMatP= 1.14D-06
 IDIUse=1 WtCom= 1.00D+00 WtEn= 0.00D+00
 Coeff-Com: -0.106D-02 0.610D-02 0.682D-02 0.312D-01 0.182D+00 0.340D+00
 Coeff-Com:  0.435D+00
 Coeff:     -0.106D-02 0.610D-02 0.682D-02 0.312D-01 0.182D+00 0.340D+00
 Coeff:      0.435D+00
 Gap=     0.216 Goal=   None    Shift=    0.000
 RMSDP=4.35D-06 MaxDP=8.20D-05 DE=-8.88D-07 OVMax= 2.02D-04

 Initial convergence to 1.0D-05 achieved.  Increase integral accuracy.
 Cycle   8  Pass 1  IDiag  1:
 E= -242.161684802350     Delta-E=       -0.000000078521 Rises=F Damp=F
 DIIS: error= 9.06D-06 at cycle   1 NSaved=   1.
 NSaved= 1 IEnMin= 1 EnMin= -242.161684802350     IErMin= 1 ErrMin= 9.06D-06
 ErrMax= 9.06D-06  0.00D+00 EMaxC= 1.00D-01 BMatC= 1.23D-08 BMatP= 1.23D-08
 IDIUse=1 WtCom= 1.00D+00 WtEn= 0.00D+00
 Coeff-Com:  0.100D+01
 Coeff:      0.100D+01
 Gap=     0.216 Goal=   None    Shift=    0.000
 RMSDP=4.35D-06 MaxDP=8.20D-05 DE=-7.85D-08 OVMax= 5.78D-05

 Cycle   9  Pass 1  IDiag  1:
 E= -242.161684810380     Delta-E=       -0.000000008031 Rises=F Damp=F
 DIIS: error= 1.00D-05 at cycle   2 NSaved=   2.
 NSaved= 2 IEnMin= 2 EnMin= -242.161684810380     IErMin= 1 ErrMin= 9.06D-06
 ErrMax= 1.00D-05  0.00D+00 EMaxC= 1.00D-01 BMatC= 7.54D-09 BMatP= 1.23D-08
 IDIUse=1 WtCom= 1.00D+00 WtEn= 0.00D+00
 Coeff-Com:  0.409D+00 0.591D+00
 Coeff:      0.409D+00 0.591D+00
 Gap=     0.216 Goal=   None    Shift=    0.000
 RMSDP=1.76D-06 MaxDP=3.68D-05 DE=-8.03D-09 OVMax= 6.62D-05

 Cycle  10  Pass 1  IDiag  1:
 E= -242.161684811762     Delta-E=       -0.000000001381 Rises=F Damp=F
 DIIS: error= 9.53D-06 at cycle   3 NSaved=   3.
 NSaved= 3 IEnMin= 3 EnMin= -242.161684811762     IErMin= 1 ErrMin= 9.06D-06
 ErrMax= 9.53D-06  0.00D+00 EMaxC= 1.00D-01 BMatC= 6.66D-09 BMatP= 7.54D-09
 IDIUse=1 WtCom= 1.00D+00 WtEn= 0.00D+00
 Coeff-Com:  0.444D-01 0.472D+00 0.484D+00
 Coeff:      0.444D-01 0.472D+00 0.484D+00
 Gap=     0.216 Goal=   None    Shift=    0.000
 RMSDP=9.25D-07 MaxDP=2.41D-05 DE=-1.38D-09 OVMax= 3.22D-05

 Cycle  11  Pass 1  IDiag  1:
 E= -242.161684817645     Delta-E=       -0.000000005883 Rises=F Damp=F
 DIIS: error= 2.51D-06 at cycle   4 NSaved=   4.
 NSaved= 4 IEnMin= 4 EnMin= -242.161684817645     IErMin= 4 ErrMin= 2.51D-06
 ErrMax= 2.51D-06  0.00D+00 EMaxC= 1.00D-01 BMatC= 5.75D-10 BMatP= 6.66D-09
 IDIUse=1 WtCom= 1.00D+00 WtEn= 0.00D+00
 Coeff-Com: -0.105D-01 0.269D+00 0.319D+00 0.422D+00
 Coeff:     -0.105D-01 0.269D+00 0.319D+00 0.422D+00
 Gap=     0.216 Goal=   None    Shift=    0.000
 RMSDP=2.66D-07 MaxDP=5.37D-06 DE=-5.88D-09 OVMax= 8.60D-06

 Cycle  12  Pass 1  IDiag  1:
 E= -242.161684818131     Delta-E=       -0.000000000486 Rises=F Damp=F
 DIIS: error= 6.15D-07 at cycle   5 NSaved=   5.
 NSaved= 5 IEnMin= 5 EnMin= -242.161684818131     IErMin= 5 ErrMin= 6.15D-07
 ErrMax= 6.15D-07  0.00D+00 EMaxC= 1.00D-01 BMatC= 3.18D-11 BMatP= 5.75D-10
 IDIUse=1 WtCom= 1.00D+00 WtEn= 0.00D+00
 Coeff-Com: -0.912D-02 0.103D+00 0.120D+00 0.244D+00 0.542D+00
 Coeff:     -0.912D-02 0.103D+00 0.120D+00 0.244D+00 0.542D+00
 Gap=     0.216 Goal=   None    Shift=    0.000
 RMSDP=6.81D-08 MaxDP=1.10D-06 DE=-4.86D-10 OVMax= 1.71D-06

 Cycle  13  Pass 1  IDiag  1:
 E= -242.161684818157     Delta-E=       -0.000000000026 Rises=F Damp=F
 DIIS: error= 1.80D-07 at cycle   6 NSaved=   6.
 NSaved= 6 IEnMin= 6 EnMin= -242.161684818157     IErMin= 6 ErrMin= 1.80D-07
 ErrMax= 1.80D-07  0.00D+00 EMaxC= 1.00D-01 BMatC= 3.16D-12 BMatP= 3.18D-11
 IDIUse=1 WtCom= 1.00D+00 WtEn= 0.00D+00
 Coeff-Com: -0.499D-02 0.474D-01 0.533D-01 0.130D+00 0.334D+00 0.440D+00
 Coeff:     -0.499D-02 0.474D-01 0.533D-01 0.130D+00 0.334D+00 0.440D+00
 Gap=     0.216 Goal=   None    Shift=    0.000
 RMSDP=2.68D-08 MaxDP=3.64D-07 DE=-2.63D-11 OVMax= 8.50D-07

 Cycle  14  Pass 1  IDiag  1:
 E= -242.161684818162     Delta-E=       -0.000000000004 Rises=F Damp=F
 DIIS: error= 1.24D-07 at cycle   7 NSaved=   7.
 NSaved= 7 IEnMin= 7 EnMin= -242.161684818162     IErMin= 7 ErrMin= 1.24D-07
 ErrMax= 1.24D-07  0.00D+00 EMaxC= 1.00D-01 BMatC= 6.10D-13 BMatP= 3.16D-12
 IDIUse=1 WtCom= 1.00D+00 WtEn= 0.00D+00
 Coeff-Com: -0.176D-02 0.151D-01 0.153D-01 0.475D-01 0.137D+00 0.304D+00
 Coeff-Com:  0.483D+00
 Coeff:     -0.176D-02 0.151D-01 0.153D-01 0.475D-01 0.137D+00 0.304D+00
 Coeff:      0.483D+00
 Gap=     0.216 Goal=   None    Shift=    0.000
 RMSDP=1.13D-08 MaxDP=2.48D-07 DE=-4.38D-12 OVMax= 4.14D-07

 Cycle  15  Pass 1  IDiag  1:
 E= -242.161684818162     Delta-E=        0.000000000000 Rises=F Damp=F
 DIIS: error= 4.41D-08 at cycle   8 NSaved=   8.
 NSaved= 8 IEnMin= 8 EnMin= -242.161684818162     IErMin= 8 ErrMin= 4.41D-08
 ErrMax= 4.41D-08  0.00D+00 EMaxC= 1.00D-01 BMatC= 1.21D-13 BMatP= 6.10D-13
 IDIUse=1 WtCom= 1.00D+00 WtEn= 0.00D+00
 Coeff-Com: -0.385D-03 0.204D-02 0.141D-02 0.871D-02 0.283D-01 0.102D+00
 Coeff-Com:  0.341D+00 0.517D+00
 Coeff:     -0.385D-03 0.204D-02 0.141D-02 0.871D-02 0.283D-01 0.102D+00
 Coeff:      0.341D+00 0.517D+00
 Gap=     0.216 Goal=   None    Shift=    0.000
 RMSDP=4.39D-09 MaxDP=7.45D-08 DE=-1.14D-13 OVMax= 1.21D-07

 SCF Done:  E(RB3LYP) =  -242.161684818     A.U. after   15 cycles
            NFock= 15  Conv=0.44D-08     -V/T= 2.0126
 KE= 2.391519528821D+02 PE=-8.716039613074D+02 EE= 2.361572317842D+02
 Leave Link  502 at Tue Jul 21 14:56:13 2020, MaxMem=   268435456 cpu:         5.4
 (Enter /Applications/Gaussian/g09/l701.exe)
 Compute integral first derivatives.
 ... and contract with generalized density number  0.
 Leave Link  701 at Tue Jul 21 14:56:14 2020, MaxMem=   268435456 cpu:         0.2
 (Enter /Applications/Gaussian/g09/l702.exe)
 L702 exits ... SP integral derivatives will be done elsewhere.
 Leave Link  702 at Tue Jul 21 14:56:14 2020, MaxMem=   268435456 cpu:         0.1
 (Enter /Applications/Gaussian/g09/l703.exe)
 Compute integral first derivatives, UseDBF=F ICtDFT=           0.
 Integral derivatives from FoFJK, PRISM(SPDF).
 Calling FoFJK, ICntrl=      2127 FMM=F ISym2X=0 I1Cent= 0 IOpClX= 0 NMat=1 NMatS=1 NMatT=0.
 FoFJK:  IHMeth= 1 ICntrl=    2127 DoSepK=F KAlg= 0 I1Cent=   0 FoldK=F
 IRaf=         0 NMat=   1 IRICut=       1 DoRegI=T DoRafI=F ISym2E= 0.
 FoFCou: FMM=F IPFlag=           0 FMFlag=      100000 FMFlg1=         800
         NFxFlg=           0 DoJE=F BraDBF=F KetDBF=F FulRan=T
         wScrn=  0.000000 ICntrl=    2127 IOpCl=  0 I1Cent=           0 NGrid=           0
         NMat0=    1 NMatS0=      1 NMatT0=    0 NMatD0=    1 NMtDS0=    0 NMtDT0=    0
 Symmetry not used in FoFCou.
 Leave Link  703 at Tue Jul 21 14:56:14 2020, MaxMem=   268435456 cpu:         1.5
 (Enter /Applications/Gaussian/g09/l716.exe)
 Dipole        = 5.40537232D-01 1.43823658D+00 3.44072426D-05
 ***** Axes restored to original set *****
 -------------------------------------------------------------------
 Center     Atomic                   Forces (Hartrees/Bohr)
 Number     Number              X              Y              Z
 -------------------------------------------------------------------
      1        6          -0.039273042    0.076785476    0.024234064
      2        6          -0.003498665    0.025480447    0.005410175
      3        1          -0.002352000    0.006416290    0.001786234
      4        1           0.001206004    0.006415067    0.000799008
      5        7          -0.067518803    0.018537770    0.021602844
      6        7          -0.012808091   -0.050527517   -0.005536278
      7        7           0.127114998   -0.088904774   -0.050099322
      8        1          -0.002870401    0.005797240    0.001803275
 -------------------------------------------------------------------
 Cartesian Forces:  Max     0.127114998 RMS     0.042594866
 Leave Link  716 at Tue Jul 21 14:56:14 2020, MaxMem=   268435456 cpu:         0.1
 (Enter /Applications/Gaussian/g09/l103.exe)

 GradGradGradGradGradGradGradGradGradGradGradGradGradGradGradGradGradGrad
 Berny optimization.
 Using GEDIIS/GDIIS optimizer.
 FormGI is forming the generalized inverse of G from B-inverse, IUseBI=4.
 Internal  Forces:  Max     0.109658950 RMS     0.028387233
 Search for a local minimum.
 Step number   2 out of a maximum of   42
 All quantities printed in internal units (Hartrees-Bohrs-Radians)
 RMS Force = .28387D-01 SwitMx=.10000D-02 MixMth= 1
 Mixed Optimization -- RFO/linear search
 Update second derivatives using D2CorX and points    1    2
 DE= -5.48D-02 DEPred=-5.02D-02 R= 1.09D+00
 TightC=F SS=  1.41D+00  RLast= 3.00D-01 DXNew= 5.0454D-01 8.9977D-01
 Trust test= 1.09D+00 RLast= 3.00D-01 DXMaxT set to 5.05D-01
 ITU=  1  0
 Use linear search instead of GDIIS.
 Linear search step of   0.526 exceeds DXMaxT=   0.505 but not scaled.
 Quartic linear search produced a step of  1.75472.
 Iteration  1 RMS(Cart)=  0.08386414 RMS(Int)=  0.03054014
 Iteration  2 RMS(Cart)=  0.03409960 RMS(Int)=  0.00359364
 Iteration  3 RMS(Cart)=  0.00017199 RMS(Int)=  0.00359037
 Iteration  4 RMS(Cart)=  0.00000025 RMS(Int)=  0.00359037
 ITry= 1 IFail=0 DXMaxC= 2.53D-01 DCOld= 1.00D+10 DXMaxT= 5.05D-01 DXLimC= 3.00D+00 Rises=F
 Variable       Old X    -DE/DX   Delta X   Delta X   Delta X     New X
                                 (Linear)    (Quad)   (Total)
    R1        2.56587  -0.01556  -0.06442   0.00000  -0.06801   2.49786
    R2        2.05105  -0.00358  -0.00940   0.00000  -0.00940   2.04165
    R3        2.94899  -0.10966  -0.37016   0.00000  -0.36610   2.58289
    R4        2.05349  -0.00461  -0.01599   0.00000  -0.01599   2.03750
    R5        2.67133  -0.02569  -0.06139   0.00000  -0.06745   2.60388
    R6        2.50496  -0.07168  -0.17119   0.00000  -0.17208   2.33287
    R7        3.03982  -0.06561  -0.21096   0.00000  -0.20520   2.83462
    R8        1.90061   0.00511   0.01910   0.00000   0.01910   1.91971
    A1        2.23531   0.01684   0.07337   0.00000   0.07305   2.30836
    A2        1.89871  -0.02120  -0.08490   0.00000  -0.08427   1.81445
    A3        2.14916   0.00435   0.01154   0.00000   0.01122   2.16038
    A4        2.19496   0.00755   0.01232   0.00000   0.01624   2.21120
    A5        1.95100  -0.00549   0.00804   0.00000   0.00020   1.95120
    A6        2.13722  -0.00206  -0.02036   0.00000  -0.01644   2.12078
    A7        1.95036   0.00503   0.00683   0.00000  -0.00114   1.94923
    A8        1.89800  -0.01648  -0.08608   0.00000  -0.07967   1.81833
    A9        1.72670   0.03814   0.15612   0.00000   0.16488   1.89157
   A10        2.28305  -0.01492  -0.06963   0.00000  -0.07401   2.20904
   A11        2.27344  -0.02321  -0.08649   0.00000  -0.09087   2.18257
    D1       -0.00029   0.00000   0.00000   0.00000  -0.00001  -0.00030
    D2        3.14109   0.00002   0.00012   0.00000   0.00012   3.14121
    D3        3.14139   0.00001   0.00005   0.00000   0.00005   3.14144
    D4       -0.00041   0.00003   0.00018   0.00000   0.00017  -0.00024
    D5        0.00018  -0.00001  -0.00007   0.00000  -0.00007   0.00011
    D6       -3.14141  -0.00001  -0.00005   0.00000  -0.00005  -3.14146
    D7       -3.14133   0.00000  -0.00002   0.00000  -0.00003  -3.14135
    D8        0.00027   0.00000   0.00000   0.00000  -0.00001   0.00027
    D9        0.00052  -0.00003  -0.00020   0.00000  -0.00021   0.00031
   D10       -3.14128  -0.00001  -0.00007   0.00000  -0.00008  -3.14136
   D11       -0.00037   0.00002   0.00017   0.00000   0.00016  -0.00021
   D12        0.00012  -0.00001  -0.00006   0.00000  -0.00006   0.00006
   D13       -3.14148  -0.00001  -0.00007   0.00000  -0.00007  -3.14155
         Item               Value     Threshold  Converged?
 Maximum Force            0.109659     0.000450     NO 
 RMS     Force            0.028387     0.000300     NO 
 Maximum Displacement     0.253449     0.001800     NO 
 RMS     Displacement     0.105470     0.001200     NO 
 Predicted change in Energy=-6.212648D-02
 Lowest energy point so far.  Saving SCF results.
 GradGradGradGradGradGradGradGradGradGradGradGradGradGradGradGradGradGrad

 Leave Link  103 at Tue Jul 21 14:56:14 2020, MaxMem=   268435456 cpu:         0.0
 (Enter /Applications/Gaussian/g09/l202.exe)
                          Input orientation:                          
 ---------------------------------------------------------------------
 Center     Atomic      Atomic             Coordinates (Angstroms)
 Number     Number       Type             X           Y           Z
 ---------------------------------------------------------------------
      1          6           0       -5.740829    1.907319    0.120991
      2          6           0       -4.463467    1.952038   -0.215947
      3          1           0       -6.451610    1.095066    0.168804
      4          1           0       -3.850184    1.122142   -0.528471
      5          7           0       -3.955321    3.229741   -0.127003
      6          7           0       -4.811791    4.036177    0.247318
      7          7           0       -6.045155    3.202827    0.432768
      8          1           0       -6.947176    3.555789    0.738974
 ---------------------------------------------------------------------
                    Distance matrix (angstroms):
                    1          2          3          4          5
     1  C    0.000000
     2  C    1.321810   0.000000
     3  H    1.080394   2.198897   0.000000
     4  H    2.147752   1.078199   2.693389   0.000000
     5  N    2.235696   1.377914   3.297847   2.148069   0.000000
     6  N    2.326178   2.163233   3.368279   3.165144   1.234503
     7  N    1.366807   2.118264   2.162762   3.173504   2.163672
     8  H    2.134158   3.106880   2.574070   4.137682   3.131680
                    6          7          8
     6  N    0.000000
     7  N    1.500016   0.000000
     8  H    2.243294   1.015867   0.000000
 Stoichiometry    C2H3N3
 Framework group  C1[X(C2H3N3)]
 Deg. of freedom    18
 Full point group                 C1      NOp   1
 RotChk:  IX=0 Diff= 1.59D+00
 Largest Abelian subgroup         C1      NOp   1
 Largest concise Abelian subgroup C1      NOp   1
                         Standard orientation:                         
 ---------------------------------------------------------------------
 Center     Atomic      Atomic             Coordinates (Angstroms)
 Number     Number       Type             X           Y           Z
 ---------------------------------------------------------------------
      1          6           0        1.124157    0.261694   -0.000035
      2          6           0        0.110415    1.109931    0.000079
      3          1           0        2.194503    0.408701   -0.000268
      4          1           0        0.171125    2.186420    0.000210
      5          7           0       -1.102990    0.457018   -0.000099
      6          7           0       -0.961066   -0.769299    0.000031
      7          7           0        0.525839   -0.967198    0.000026
      8          1           0        0.994460   -1.868519    0.000084
 ---------------------------------------------------------------------
 Rotational constants (GHZ):     10.4486133      9.2025824      4.8930471
 Leave Link  202 at Tue Jul 21 14:56:14 2020, MaxMem=   268435456 cpu:         0.0
 (Enter /Applications/Gaussian/g09/l301.exe)
 Standard basis: 6-31G(d) (6D, 7F)
 Ernie: Thresh=  0.10000D-02 Tol=  0.10000D-05 Strict=F.
 There are    81 symmetry adapted cartesian basis functions of A   symmetry.
 There are    81 symmetry adapted basis functions of A   symmetry.
    81 basis functions,   152 primitive gaussians,    81 cartesian basis functions
    18 alpha electrons       18 beta electrons
       nuclear repulsion energy       163.6632831346 Hartrees.
 IExCor=  402 DFT=T Ex+Corr=B3LYP ExCW=0 ScaHFX=  0.200000
 ScaDFX=  0.800000  0.720000  1.000000  0.810000 ScalE2=  1.000000  1.000000
 IRadAn=      0 IRanWt=     -1 IRanGd=            0 ICorTp=0 IEmpDi=  4
 NAtoms=    8 NActive=    8 NUniq=    8 SFac= 1.00D+00 NAtFMM=   60 NAOKFM=F Big=F
 Integral buffers will be    131072 words long.
 Raffenetti 2 integral format.
 Two-electron integral symmetry is turned on.
 Leave Link  301 at Tue Jul 21 14:56:15 2020, MaxMem=   268435456 cpu:         0.1
 (Enter /Applications/Gaussian/g09/l302.exe)
 NPDir=0 NMtPBC=     1 NCelOv=     1 NCel=       1 NClECP=     1 NCelD=      1
         NCelK=      1 NCelE2=     1 NClLst=     1 CellRange=     0.0.
 One-electron integrals computed using PRISM.
 NBasis=    81 RedAO= T EigKep=  1.58D-03  NBF=    81
 NBsUse=    81 1.00D-06 EigRej= -1.00D+00 NBFU=    81
 Precomputing XC quadrature grid using
 IXCGrd= 4 IRadAn=           0 IRanWt=          -1 IRanGd=           0 AccXCQ= 0.00D+00.
 Generated NRdTot=       0 NPtTot=           0 NUsed=           0 NTot=          32
 NSgBfM=    81    81    81    81    81 MxSgAt=     8 MxSgA2=     8.
 Leave Link  302 at Tue Jul 21 14:56:15 2020, MaxMem=   268435456 cpu:         0.2
 (Enter /Applications/Gaussian/g09/l303.exe)
 DipDrv:  MaxL=1.
 Leave Link  303 at Tue Jul 21 14:56:15 2020, MaxMem=   268435456 cpu:         0.0
 (Enter /Applications/Gaussian/g09/l401.exe)
 Initial guess from the checkpoint file:  "triazole.chk"
 B after Tr=     0.000000    0.000000    0.000000
         Rot=    0.828904    0.000002    0.000003    0.559391 Ang=  68.03 deg.
 Guess basis will be translated and rotated to current coordinates.
 JPrj=2 DoOrth=T DoCkMO=T.
 Generating alternative initial guess.
 ExpMin= 1.61D-01 ExpMax= 4.17D+03 ExpMxC= 6.27D+02 IAcc=1 IRadAn=         1 AccDes= 0.00D+00
 Harris functional with IExCor=  402 and IRadAn=       1 diagonalized for initial guess.
 HarFok:  IExCor=  402 AccDes= 0.00D+00 IRadAn=         1 IDoV= 1 UseB2=F ITyADJ=14
 ICtDFT=  3500011 ScaDFX=  1.000000  1.000000  1.000000  1.000000
 FoFCou: FMM=F IPFlag=           0 FMFlag=      100000 FMFlg1=           0
         NFxFlg=           0 DoJE=T BraDBF=F KetDBF=T FulRan=T
         wScrn=  0.000000 ICntrl=     500 IOpCl=  0 I1Cent=   200000004 NGrid=           0
         NMat0=    1 NMatS0=      1 NMatT0=    0 NMatD0=    1 NMtDS0=    0 NMtDT0=    0
 Petite list used in FoFCou.
 Harris En= -242.175046526516    
 Leave Link  401 at Tue Jul 21 14:56:15 2020, MaxMem=   268435456 cpu:         0.4
 (Enter /Applications/Gaussian/g09/l502.exe)
 Closed shell SCF:
 Using DIIS extrapolation, IDIIS=  1040.
 Integral symmetry usage will be decided dynamically.
 Keep R1 ints in memory in canonical form, NReq=6457725.
 IVT=       39328 IEndB=       39328 NGot=   268435456 MDV=   262879948
 LenX=   262879948 LenY=   262872946
 Requested convergence on RMS density matrix=1.00D-08 within 128 cycles.
 Requested convergence on MAX density matrix=1.00D-06.
 Requested convergence on             energy=1.00D-06.
 No special actions if energy rises.
 FoFCou: FMM=F IPFlag=           0 FMFlag=           0 FMFlg1=           0
         NFxFlg=           0 DoJE=F BraDBF=F KetDBF=F FulRan=T
         wScrn=  0.000000 ICntrl=     600 IOpCl=  0 I1Cent=           0 NGrid=           0
         NMat0=    1 NMatS0=   3321 NMatT0=    0 NMatD0=    1 NMtDS0=    0 NMtDT0=    0
 Symmetry not used in FoFCou.
 Integral accuracy reduced to 1.0D-05 until final iterations.

 Cycle   1  Pass 0  IDiag  1:
 E= -242.187195801329    
 DIIS: error= 1.02D-02 at cycle   1 NSaved=   1.
 NSaved= 1 IEnMin= 1 EnMin= -242.187195801329     IErMin= 1 ErrMin= 1.02D-02
 ErrMax= 1.02D-02  0.00D+00 EMaxC= 1.00D-01 BMatC= 1.38D-02 BMatP= 1.38D-02
 IDIUse=3 WtCom= 8.98D-01 WtEn= 1.02D-01
 Coeff-Com:  0.100D+01
 Coeff-En:   0.100D+01
 Coeff:      0.100D+01
 Recover alternate guess density for next cycle.
 RMSDP=4.76D-03 MaxDP=6.99D-02              OVMax= 0.00D+00

 Cycle   2  Pass 0  IDiag  1:
 E= -242.125867963898     Delta-E=        0.061327837432 Rises=F Damp=F
 Switch densities from cycles 1 and 2 for lowest energy.
 DIIS: error= 2.79D-02 at cycle   2 NSaved=   2.
 NSaved= 2 IEnMin= 1 EnMin= -242.187195801329     IErMin= 1 ErrMin= 1.02D-02
 ErrMax= 2.79D-02  0.00D+00 EMaxC= 1.00D+00 BMatC= 8.22D-02 BMatP= 1.38D-02
 IDIUse=1 WtCom= 1.00D+00 WtEn= 0.00D+00
 Coeff-Com:  0.814D+00 0.186D+00
 Coeff:      0.814D+00 0.186D+00
 Gap=     0.243 Goal=   None    Shift=    0.000
 RMSDP=2.94D-03 MaxDP=3.69D-02 DE= 6.13D-02 OVMax= 1.02D-01

 Cycle   3  Pass 0  IDiag  1:
 E= -242.198941617498     Delta-E=       -0.073073653600 Rises=F Damp=F
 DIIS: error= 1.07D-02 at cycle   3 NSaved=   3.
 NSaved= 3 IEnMin= 3 EnMin= -242.198941617498     IErMin= 1 ErrMin= 1.02D-02
 ErrMax= 1.07D-02  0.00D+00 EMaxC= 1.00D+00 BMatC= 8.48D-03 BMatP= 1.38D-02
 IDIUse=1 WtCom= 1.00D+00 WtEn= 0.00D+00
 Coeff-Com:  0.268D+00 0.158D+00 0.574D+00
 Coeff:      0.268D+00 0.158D+00 0.574D+00
 Gap=     0.250 Goal=   None    Shift=    0.000
 RMSDP=1.55D-03 MaxDP=2.67D-02 DE=-7.31D-02 OVMax= 4.97D-02

 Cycle   4  Pass 0  IDiag  1:
 E= -242.204044599554     Delta-E=       -0.005102982056 Rises=F Damp=F
 DIIS: error= 6.34D-03 at cycle   4 NSaved=   4.
 NSaved= 4 IEnMin= 4 EnMin= -242.204044599554     IErMin= 4 ErrMin= 6.34D-03
 ErrMax= 6.34D-03  0.00D+00 EMaxC= 1.00D+00 BMatC= 3.03D-03 BMatP= 8.48D-03
 IDIUse=1 WtCom= 1.00D+00 WtEn= 0.00D+00
 Coeff-Com: -0.355D-02 0.513D-01 0.399D+00 0.553D+00
 Coeff:     -0.355D-02 0.513D-01 0.399D+00 0.553D+00
 Gap=     0.249 Goal=   None    Shift=    0.000
 RMSDP=6.44D-04 MaxDP=1.14D-02 DE=-5.10D-03 OVMax= 2.19D-02

 Cycle   5  Pass 0  IDiag  1:
 E= -242.206601492282     Delta-E=       -0.002556892728 Rises=F Damp=F
 DIIS: error= 1.29D-03 at cycle   5 NSaved=   5.
 NSaved= 5 IEnMin= 5 EnMin= -242.206601492282     IErMin= 5 ErrMin= 1.29D-03
 ErrMax= 1.29D-03  0.00D+00 EMaxC= 1.00D+00 BMatC= 1.58D-04 BMatP= 3.03D-03
 IDIUse=1 WtCom= 1.00D+00 WtEn= 0.00D+00
 Coeff-Com: -0.109D-01 0.195D-01 0.200D+00 0.317D+00 0.474D+00
 Coeff:     -0.109D-01 0.195D-01 0.200D+00 0.317D+00 0.474D+00
 Gap=     0.247 Goal=   None    Shift=    0.000
 RMSDP=1.95D-04 MaxDP=2.64D-03 DE=-2.56D-03 OVMax= 6.49D-03

 Cycle   6  Pass 0  IDiag  1:
 E= -242.206721837611     Delta-E=       -0.000120345329 Rises=F Damp=F
 DIIS: error= 5.55D-04 at cycle   6 NSaved=   6.
 NSaved= 6 IEnMin= 6 EnMin= -242.206721837611     IErMin= 6 ErrMin= 5.55D-04
 ErrMax= 5.55D-04  0.00D+00 EMaxC= 1.00D+00 BMatC= 2.32D-05 BMatP= 1.58D-04
 IDIUse=1 WtCom= 1.00D+00 WtEn= 0.00D+00
 Coeff-Com: -0.475D-02 0.228D-02 0.459D-01 0.897D-01 0.297D+00 0.570D+00
 Coeff:     -0.475D-02 0.228D-02 0.459D-01 0.897D-01 0.297D+00 0.570D+00
 Gap=     0.247 Goal=   None    Shift=    0.000
 RMSDP=7.04D-05 MaxDP=1.16D-03 DE=-1.20D-04 OVMax= 2.53D-03

 Cycle   7  Pass 0  IDiag  1:
 E= -242.206741248822     Delta-E=       -0.000019411212 Rises=F Damp=F
 DIIS: error= 1.59D-04 at cycle   7 NSaved=   7.
 NSaved= 7 IEnMin= 7 EnMin= -242.206741248822     IErMin= 7 ErrMin= 1.59D-04
 ErrMax= 1.59D-04  0.00D+00 EMaxC= 1.00D+00 BMatC= 3.26D-06 BMatP= 2.32D-05
 IDIUse=1 WtCom= 1.00D+00 WtEn= 0.00D+00
 Coeff-Com: -0.165D-02-0.331D-03 0.132D-01 0.327D-01 0.154D+00 0.365D+00
 Coeff-Com:  0.437D+00
 Coeff:     -0.165D-02-0.331D-03 0.132D-01 0.327D-01 0.154D+00 0.365D+00
 Coeff:      0.437D+00
 Gap=     0.247 Goal=   None    Shift=    0.000
 RMSDP=1.92D-05 MaxDP=3.32D-04 DE=-1.94D-05 OVMax= 8.14D-04

 Cycle   8  Pass 0  IDiag  1:
 E= -242.206744124909     Delta-E=       -0.000002876087 Rises=F Damp=F
 DIIS: error= 1.90D-05 at cycle   8 NSaved=   8.
 NSaved= 8 IEnMin= 8 EnMin= -242.206744124909     IErMin= 8 ErrMin= 1.90D-05
 ErrMax= 1.90D-05  0.00D+00 EMaxC= 1.00D+00 BMatC= 4.41D-08 BMatP= 3.26D-06
 IDIUse=1 WtCom= 1.00D+00 WtEn= 0.00D+00
 Coeff-Com: -0.432D-03-0.239D-03 0.158D-02 0.578D-02 0.346D-01 0.883D-01
 Coeff-Com:  0.165D+00 0.705D+00
 Coeff:     -0.432D-03-0.239D-03 0.158D-02 0.578D-02 0.346D-01 0.883D-01
 Coeff:      0.165D+00 0.705D+00
 Gap=     0.247 Goal=   None    Shift=    0.000
 RMSDP=2.42D-06 MaxDP=3.88D-05 DE=-2.88D-06 OVMax= 4.64D-05

 Initial convergence to 1.0D-05 achieved.  Increase integral accuracy.
 Cycle   9  Pass 1  IDiag  1:
 E= -242.206749846788     Delta-E=       -0.000005721879 Rises=F Damp=F
 DIIS: error= 6.62D-06 at cycle   1 NSaved=   1.
 NSaved= 1 IEnMin= 1 EnMin= -242.206749846788     IErMin= 1 ErrMin= 6.62D-06
 ErrMax= 6.62D-06  0.00D+00 EMaxC= 1.00D+00 BMatC= 1.02D-08 BMatP= 1.02D-08
 IDIUse=1 WtCom= 1.00D+00 WtEn= 0.00D+00
 Coeff-Com:  0.100D+01
 Coeff:      0.100D+01
 Gap=     0.247 Goal=   None    Shift=    0.000
 RMSDP=2.42D-06 MaxDP=3.88D-05 DE=-5.72D-06 OVMax= 6.10D-05

 Cycle  10  Pass 1  IDiag  1:
 E= -242.206749848006     Delta-E=       -0.000000001218 Rises=F Damp=F
 DIIS: error= 8.89D-06 at cycle   2 NSaved=   2.
 NSaved= 2 IEnMin= 2 EnMin= -242.206749848006     IErMin= 1 ErrMin= 6.62D-06
 ErrMax= 8.89D-06  0.00D+00 EMaxC= 1.00D+00 BMatC= 1.10D-08 BMatP= 1.02D-08
 IDIUse=1 WtCom= 1.00D+00 WtEn= 0.00D+00
 Coeff-Com:  0.512D+00 0.488D+00
 Coeff:      0.512D+00 0.488D+00
 Gap=     0.247 Goal=   None    Shift=    0.000
 RMSDP=1.43D-06 MaxDP=2.95D-05 DE=-1.22D-09 OVMax= 5.01D-05

 Cycle  11  Pass 1  IDiag  1:
 E= -242.206749857024     Delta-E=       -0.000000009017 Rises=F Damp=F
 DIIS: error= 3.65D-06 at cycle   3 NSaved=   3.
 NSaved= 3 IEnMin= 3 EnMin= -242.206749857024     IErMin= 3 ErrMin= 3.65D-06
 ErrMax= 3.65D-06  0.00D+00 EMaxC= 1.00D+00 BMatC= 1.05D-09 BMatP= 1.02D-08
 IDIUse=1 WtCom= 1.00D+00 WtEn= 0.00D+00
 Coeff-Com:  0.726D-02 0.228D+00 0.764D+00
 Coeff:      0.726D-02 0.228D+00 0.764D+00
 Gap=     0.247 Goal=   None    Shift=    0.000
 RMSDP=5.05D-07 MaxDP=8.35D-06 DE=-9.02D-09 OVMax= 1.78D-05

 Cycle  12  Pass 1  IDiag  1:
 E= -242.206749857683     Delta-E=       -0.000000000659 Rises=F Damp=F
 DIIS: error= 2.30D-06 at cycle   4 NSaved=   4.
 NSaved= 4 IEnMin= 4 EnMin= -242.206749857683     IErMin= 4 ErrMin= 2.30D-06
 ErrMax= 2.30D-06  0.00D+00 EMaxC= 1.00D+00 BMatC= 3.65D-10 BMatP= 1.05D-09
 IDIUse=1 WtCom= 1.00D+00 WtEn= 0.00D+00
 Coeff-Com: -0.164D-01 0.133D+00 0.524D+00 0.359D+00
 Coeff:     -0.164D-01 0.133D+00 0.524D+00 0.359D+00
 Gap=     0.247 Goal=   None    Shift=    0.000
 RMSDP=2.13D-07 MaxDP=4.20D-06 DE=-6.59D-10 OVMax= 6.55D-06

 Cycle  13  Pass 1  IDiag  1:
 E= -242.206749858010     Delta-E=       -0.000000000327 Rises=F Damp=F
 DIIS: error= 1.74D-07 at cycle   5 NSaved=   5.
 NSaved= 5 IEnMin= 5 EnMin= -242.206749858010     IErMin= 5 ErrMin= 1.74D-07
 ErrMax= 1.74D-07  0.00D+00 EMaxC= 1.00D+00 BMatC= 4.18D-12 BMatP= 3.65D-10
 IDIUse=1 WtCom= 1.00D+00 WtEn= 0.00D+00
 Coeff-Com: -0.863D-02 0.509D-01 0.211D+00 0.166D+00 0.581D+00
 Coeff:     -0.863D-02 0.509D-01 0.211D+00 0.166D+00 0.581D+00
 Gap=     0.247 Goal=   None    Shift=    0.000
 RMSDP=3.04D-08 MaxDP=4.28D-07 DE=-3.27D-10 OVMax= 5.84D-07

 Cycle  14  Pass 1  IDiag  1:
 E= -242.206749858013     Delta-E=       -0.000000000003 Rises=F Damp=F
 DIIS: error= 7.12D-08 at cycle   6 NSaved=   6.
 NSaved= 6 IEnMin= 6 EnMin= -242.206749858013     IErMin= 6 ErrMin= 7.12D-08
 ErrMax= 7.12D-08  0.00D+00 EMaxC= 1.00D+00 BMatC= 7.40D-13 BMatP= 4.18D-12
 IDIUse=1 WtCom= 1.00D+00 WtEn= 0.00D+00
 Coeff-Com: -0.295D-02 0.137D-01 0.592D-01 0.524D-01 0.323D+00 0.555D+00
 Coeff:     -0.295D-02 0.137D-01 0.592D-01 0.524D-01 0.323D+00 0.555D+00
 Gap=     0.247 Goal=   None    Shift=    0.000
 RMSDP=1.26D-08 MaxDP=2.22D-07 DE=-3.18D-12 OVMax= 3.71D-07

 Cycle  15  Pass 1  IDiag  1:
 E= -242.206749858012     Delta-E=        0.000000000001 Rises=F Damp=F
 DIIS: error= 4.70D-08 at cycle   7 NSaved=   7.
 NSaved= 7 IEnMin= 6 EnMin= -242.206749858013     IErMin= 7 ErrMin= 4.70D-08
 ErrMax= 4.70D-08  0.00D+00 EMaxC= 1.00D+00 BMatC= 1.61D-13 BMatP= 7.40D-13
 IDIUse=1 WtCom= 1.00D+00 WtEn= 0.00D+00
 Coeff-Com: -0.630D-03 0.194D-02 0.855D-02 0.108D-01 0.128D+00 0.361D+00
 Coeff-Com:  0.490D+00
 Coeff:     -0.630D-03 0.194D-02 0.855D-02 0.108D-01 0.128D+00 0.361D+00
 Coeff:      0.490D+00
 Gap=     0.247 Goal=   None    Shift=    0.000
 RMSDP=5.80D-09 MaxDP=9.49D-08 DE= 1.08D-12 OVMax= 2.31D-07

 SCF Done:  E(RB3LYP) =  -242.206749858     A.U. after   15 cycles
            NFock= 15  Conv=0.58D-08     -V/T= 2.0088
 KE= 2.400843839678D+02 PE=-8.912943340493D+02 EE= 2.453399170889D+02
 Leave Link  502 at Tue Jul 21 14:56:18 2020, MaxMem=   268435456 cpu:         5.1
 (Enter /Applications/Gaussian/g09/l701.exe)
 Compute integral first derivatives.
 ... and contract with generalized density number  0.
 Leave Link  701 at Tue Jul 21 14:56:18 2020, MaxMem=   268435456 cpu:         0.2
 (Enter /Applications/Gaussian/g09/l702.exe)
 L702 exits ... SP integral derivatives will be done elsewhere.
 Leave Link  702 at Tue Jul 21 14:56:18 2020, MaxMem=   268435456 cpu:         0.1
 (Enter /Applications/Gaussian/g09/l703.exe)
 Compute integral first derivatives, UseDBF=F ICtDFT=           0.
 Integral derivatives from FoFJK, PRISM(SPDF).
 Calling FoFJK, ICntrl=      2127 FMM=F ISym2X=0 I1Cent= 0 IOpClX= 0 NMat=1 NMatS=1 NMatT=0.
 FoFJK:  IHMeth= 1 ICntrl=    2127 DoSepK=F KAlg= 0 I1Cent=   0 FoldK=F
 IRaf=         0 NMat=   1 IRICut=       1 DoRegI=T DoRafI=F ISym2E= 0.
 FoFCou: FMM=F IPFlag=           0 FMFlag=      100000 FMFlg1=         800
         NFxFlg=           0 DoJE=F BraDBF=F KetDBF=F FulRan=T
         wScrn=  0.000000 ICntrl=    2127 IOpCl=  0 I1Cent=           0 NGrid=           0
         NMat0=    1 NMatS0=      1 NMatT0=    0 NMatD0=    1 NMtDS0=    0 NMtDT0=    0
 Symmetry not used in FoFCou.
 Leave Link  703 at Tue Jul 21 14:56:18 2020, MaxMem=   268435456 cpu:         1.6
 (Enter /Applications/Gaussian/g09/l716.exe)
 Dipole        = 1.61234021D+00-1.40442506D-01 2.90430858D-05
 ***** Axes restored to original set *****
 -------------------------------------------------------------------
 Center     Atomic                   Forces (Hartrees/Bohr)
 Number     Number              X              Y              Z
 -------------------------------------------------------------------
[...]
 (Enter /Applications/Gaussian/g09/l502.exe)
 Closed shell SCF:
 Using DIIS extrapolation, IDIIS=  1040.
 Integral symmetry usage will be decided dynamically.
 Keep R1 ints in memory in canonical form, NReq=195907262.
 IVT=      169334 IEndB=      169334 NGot=   268435456 MDV=    78072867
 LenX=    78072867 LenY=    78023142
 Requested convergence on RMS density matrix=1.00D-08 within 128 cycles.
 Requested convergence on MAX density matrix=1.00D-06.
 Requested convergence on             energy=1.00D-06.
 No special actions if energy rises.
 FoFCou: FMM=F IPFlag=           0 FMFlag=           0 FMFlg1=           0
         NFxFlg=           0 DoJE=F BraDBF=F KetDBF=F FulRan=T
         wScrn=  0.000000 ICntrl=     600 IOpCl=  0 I1Cent=           0 NGrid=           0
         NMat0=    1 NMatS0=  19503 NMatT0=    0 NMatD0=    1 NMtDS0=    0 NMtDT0=    0
 Symmetry not used in FoFCou.

 Cycle   1  Pass 1  IDiag  1:
 E= -242.166476233576    
 DIIS: error= 1.85D-02 at cycle   1 NSaved=   1.
 NSaved= 1 IEnMin= 1 EnMin= -242.166476233576     IErMin= 1 ErrMin= 1.85D-02
 ErrMax= 1.85D-02  0.00D+00 EMaxC= 1.00D-01 BMatC= 1.15D-01 BMatP= 1.15D-01
 IDIUse=3 WtCom= 8.15D-01 WtEn= 1.85D-01
 Coeff-Com:  0.100D+01
 Coeff-En:   0.100D+01
 Coeff:      0.100D+01
 Gap=     0.658 Goal=   None    Shift=    0.000
 GapD=    0.658 DampG=2.000 DampE=0.500 DampFc=1.0000 IDamp=-1.
 RMSDP=4.57D-03 MaxDP=1.01D-01              OVMax= 5.13D-02

 Cycle   2  Pass 1  IDiag  1:
 E= -242.208719576652     Delta-E=       -0.042243343076 Rises=F Damp=F
 DIIS: error= 1.36D-03 at cycle   2 NSaved=   2.
 NSaved= 2 IEnMin= 2 EnMin= -242.208719576652     IErMin= 2 ErrMin= 1.36D-03
 ErrMax= 1.36D-03  0.00D+00 EMaxC= 1.00D-01 BMatC= 4.01D-04 BMatP= 1.15D-01
 IDIUse=3 WtCom= 9.86D-01 WtEn= 1.36D-02
 Coeff-Com: -0.127D-01 0.101D+01
 Coeff-En:   0.000D+00 0.100D+01
 Coeff:     -0.125D-01 0.101D+01
 Gap=     0.333 Goal=   None    Shift=    0.000
 RMSDP=4.65D-04 MaxDP=1.48D-02 DE=-4.22D-02 OVMax= 7.18D-03

 Cycle   3  Pass 1  IDiag  1:
 E= -242.209148534496     Delta-E=       -0.000428957844 Rises=F Damp=F
 DIIS: error= 6.65D-04 at cycle   3 NSaved=   3.
 NSaved= 3 IEnMin= 3 EnMin= -242.209148534496     IErMin= 3 ErrMin= 6.65D-04
 ErrMax= 6.65D-04  0.00D+00 EMaxC= 1.00D-01 BMatC= 6.11D-05 BMatP= 4.01D-04
 IDIUse=3 WtCom= 9.93D-01 WtEn= 6.65D-03
 Coeff-Com: -0.282D-02 0.215D+00 0.788D+00
 Coeff-En:   0.000D+00 0.000D+00 0.100D+01
 Coeff:     -0.280D-02 0.214D+00 0.789D+00
 Gap=     0.328 Goal=   None    Shift=    0.000
 RMSDP=7.16D-05 MaxDP=1.64D-03 DE=-4.29D-04 OVMax= 3.02D-03

 Cycle   4  Pass 1  IDiag  1:
 E= -242.209197900587     Delta-E=       -0.000049366090 Rises=F Damp=F
 DIIS: error= 2.99D-04 at cycle   4 NSaved=   4.
 NSaved= 4 IEnMin= 4 EnMin= -242.209197900587     IErMin= 4 ErrMin= 2.99D-04
 ErrMax= 2.99D-04  0.00D+00 EMaxC= 1.00D-01 BMatC= 1.76D-05 BMatP= 6.11D-05
 IDIUse=3 WtCom= 9.97D-01 WtEn= 2.99D-03
 Coeff-Com: -0.837D-03-0.785D-02 0.332D+00 0.677D+00
 Coeff-En:   0.000D+00 0.000D+00 0.442D-01 0.956D+00
 Coeff:     -0.835D-03-0.782D-02 0.331D+00 0.678D+00
 Gap=     0.329 Goal=   None    Shift=    0.000
 RMSDP=2.49D-05 MaxDP=5.63D-04 DE=-4.94D-05 OVMax= 1.09D-03

 Cycle   5  Pass 1  IDiag  1:
 E= -242.209212185290     Delta-E=       -0.000014284703 Rises=F Damp=F
 DIIS: error= 1.09D-04 at cycle   5 NSaved=   5.
 NSaved= 5 IEnMin= 5 EnMin= -242.209212185290     IErMin= 5 ErrMin= 1.09D-04
 ErrMax= 1.09D-04  0.00D+00 EMaxC= 1.00D-01 BMatC= 1.04D-06 BMatP= 1.76D-05
 IDIUse=3 WtCom= 9.99D-01 WtEn= 1.09D-03
 Coeff-Com: -0.220D-03-0.130D-01 0.908D-01 0.256D+00 0.667D+00
 Coeff-En:   0.000D+00 0.000D+00 0.000D+00 0.000D+00 0.100D+01
 Coeff:     -0.220D-03-0.129D-01 0.907D-01 0.256D+00 0.667D+00
 Gap=     0.329 Goal=   None    Shift=    0.000
 RMSDP=6.52D-06 MaxDP=1.53D-04 DE=-1.43D-05 OVMax= 5.01D-04

 Cycle   6  Pass 1  IDiag  1:
 E= -242.209213021232     Delta-E=       -0.000000835942 Rises=F Damp=F
 DIIS: error= 4.88D-05 at cycle   6 NSaved=   6.
 NSaved= 6 IEnMin= 6 EnMin= -242.209213021232     IErMin= 6 ErrMin= 4.88D-05
 ErrMax= 4.88D-05  0.00D+00 EMaxC= 1.00D-01 BMatC= 2.91D-07 BMatP= 1.04D-06
 IDIUse=1 WtCom= 1.00D+00 WtEn= 0.00D+00
 Coeff-Com:  0.260D-04-0.645D-02 0.481D-02 0.367D-01 0.356D+00 0.609D+00
 Coeff:      0.260D-04-0.645D-02 0.481D-02 0.367D-01 0.356D+00 0.609D+00
 Gap=     0.329 Goal=   None    Shift=    0.000
 RMSDP=2.61D-06 MaxDP=6.82D-05 DE=-8.36D-07 OVMax= 2.02D-04

 Cycle   7  Pass 1  IDiag  1:
 E= -242.209213277261     Delta-E=       -0.000000256029 Rises=F Damp=F
 DIIS: error= 1.73D-05 at cycle   7 NSaved=   7.
 NSaved= 7 IEnMin= 7 EnMin= -242.209213277261     IErMin= 7 ErrMin= 1.73D-05
 ErrMax= 1.73D-05  0.00D+00 EMaxC= 1.00D-01 BMatC= 1.86D-08 BMatP= 2.91D-07
 IDIUse=1 WtCom= 1.00D+00 WtEn= 0.00D+00
 Coeff-Com:  0.399D-04-0.137D-02-0.722D-02-0.122D-01 0.911D-01 0.248D+00
 Coeff-Com:  0.682D+00
 Coeff:      0.399D-04-0.137D-02-0.722D-02-0.122D-01 0.911D-01 0.248D+00
 Coeff:      0.682D+00
 Gap=     0.329 Goal=   None    Shift=    0.000
 RMSDP=9.18D-07 MaxDP=2.85D-05 DE=-2.56D-07 OVMax= 5.95D-05

 Cycle   8  Pass 1  IDiag  1:
 E= -242.209213292301     Delta-E=       -0.000000015040 Rises=F Damp=F
 DIIS: error= 5.28D-06 at cycle   8 NSaved=   8.
 NSaved= 8 IEnMin= 8 EnMin= -242.209213292301     IErMin= 8 ErrMin= 5.28D-06
 ErrMax= 5.28D-06  0.00D+00 EMaxC= 1.00D-01 BMatC= 4.48D-09 BMatP= 1.86D-08
 IDIUse=1 WtCom= 1.00D+00 WtEn= 0.00D+00
 Coeff-Com:  0.169D-04 0.349D-03-0.479D-02-0.128D-01-0.113D-01 0.203D-01
 Coeff-Com:  0.360D+00 0.648D+00
 Coeff:      0.169D-04 0.349D-03-0.479D-02-0.128D-01-0.113D-01 0.203D-01
 Coeff:      0.360D+00 0.648D+00
 Gap=     0.329 Goal=   None    Shift=    0.000
 RMSDP=3.91D-07 MaxDP=1.26D-05 DE=-1.50D-08 OVMax= 2.01D-05

 Cycle   9  Pass 1  IDiag  1:
 E= -242.209213296278     Delta-E=       -0.000000003977 Rises=F Damp=F
 DIIS: error= 8.14D-07 at cycle   9 NSaved=   9.
 NSaved= 9 IEnMin= 9 EnMin= -242.209213296278     IErMin= 9 ErrMin= 8.14D-07
 ErrMax= 8.14D-07  0.00D+00 EMaxC= 1.00D-01 BMatC= 7.94D-11 BMatP= 4.48D-09
 IDIUse=1 WtCom= 1.00D+00 WtEn= 0.00D+00
 Coeff-Com: -0.403D-05 0.110D-03 0.465D-03 0.120D-02-0.713D-02-0.228D-01
 Coeff-Com: -0.366D-01-0.577D-02 0.107D+01
 Coeff:     -0.403D-05 0.110D-03 0.465D-03 0.120D-02-0.713D-02-0.228D-01
 Coeff:     -0.366D-01-0.577D-02 0.107D+01
 Gap=     0.329 Goal=   None    Shift=    0.000
 RMSDP=1.33D-07 MaxDP=5.33D-06 DE=-3.98D-09 OVMax= 7.93D-06

 Cycle  10  Pass 1  IDiag  1:
 E= -242.209213296443     Delta-E=       -0.000000000165 Rises=F Damp=F
 DIIS: error= 7.48D-07 at cycle  10 NSaved=  10.
 NSaved=10 IEnMin=10 EnMin= -242.209213296443     IErMin=10 ErrMin= 7.48D-07
 ErrMax= 7.48D-07  0.00D+00 EMaxC= 1.00D-01 BMatC= 3.89D-11 BMatP= 7.94D-11
 IDIUse=1 WtCom= 1.00D+00 WtEn= 0.00D+00
 Coeff-Com: -0.307D-05 0.217D-04 0.642D-03 0.171D-02-0.225D-02-0.124D-01
 Coeff-Com: -0.425D-01-0.537D-01 0.547D+00 0.561D+00
 Coeff:     -0.307D-05 0.217D-04 0.642D-03 0.171D-02-0.225D-02-0.124D-01
 Coeff:     -0.425D-01-0.537D-01 0.547D+00 0.561D+00
 Gap=     0.329 Goal=   None    Shift=    0.000
 RMSDP=3.42D-08 MaxDP=8.12D-07 DE=-1.65D-10 OVMax= 3.97D-06

 Cycle  11  Pass 1  IDiag  1:
 E= -242.209213296479     Delta-E=       -0.000000000036 Rises=F Damp=F
 DIIS: error= 1.99D-07 at cycle  11 NSaved=  11.
 NSaved=11 IEnMin=11 EnMin= -242.209213296479     IErMin=11 ErrMin= 1.99D-07
 ErrMax= 1.99D-07  0.00D+00 EMaxC= 1.00D-01 BMatC= 5.36D-12 BMatP= 3.89D-11
 IDIUse=1 WtCom= 1.00D+00 WtEn= 0.00D+00
 Coeff-Com:  0.433D-07-0.154D-04 0.447D-04 0.155D-03 0.704D-03 0.135D-02
 Coeff-Com: -0.405D-02-0.215D-01-0.945D-01 0.224D+00 0.894D+00
 Coeff:      0.433D-07-0.154D-04 0.447D-04 0.155D-03 0.704D-03 0.135D-02
 Coeff:     -0.405D-02-0.215D-01-0.945D-01 0.224D+00 0.894D+00
 Gap=     0.329 Goal=   None    Shift=    0.000
 RMSDP=2.09D-08 MaxDP=1.06D-06 DE=-3.58D-11 OVMax= 1.22D-06

 Cycle  12  Pass 1  IDiag  1:
 E= -242.209213296485     Delta-E=       -0.000000000006 Rises=F Damp=F
 DIIS: error= 3.55D-08 at cycle  12 NSaved=  12.
 NSaved=12 IEnMin=12 EnMin= -242.209213296485     IErMin=12 ErrMin= 3.55D-08
 ErrMax= 3.55D-08  0.00D+00 EMaxC= 1.00D-01 BMatC= 2.25D-13 BMatP= 5.36D-12
 IDIUse=1 WtCom= 1.00D+00 WtEn= 0.00D+00
 Coeff-Com:  0.232D-06-0.710D-05-0.324D-04-0.721D-04 0.416D-03 0.149D-02
 Coeff-Com:  0.224D-02-0.430D-02-0.689D-01 0.425D-01 0.313D+00 0.714D+00
 Coeff:      0.232D-06-0.710D-05-0.324D-04-0.721D-04 0.416D-03 0.149D-02
 Coeff:      0.224D-02-0.430D-02-0.689D-01 0.425D-01 0.313D+00 0.714D+00
 Gap=     0.329 Goal=   None    Shift=    0.000
 RMSDP=2.78D-09 MaxDP=1.03D-07 DE=-6.42D-12 OVMax= 3.38D-07

 SCF Done:  E(RM062X) =  -242.209213296     A.U. after   12 cycles
            NFock= 12  Conv=0.28D-08     -V/T= 2.0042
 KE= 2.411967174219D+02 PE=-8.939943641433D+02 EE= 2.459579198250D+02
 Leave Link  502 at Tue Jul 21 14:57:18 2020, MaxMem=   268435456 cpu:        47.0
 (Enter /Applications/Gaussian/g09/l601.exe)
 Copying SCF densities to generalized density rwf, IOpCl= 0 IROHF=0.

 **********************************************************************

            Population analysis using the SCF density.

 **********************************************************************

 Orbital symmetries:
       Occupied  (A) (A) (A) (A) (A) (A) (A) (A) (A) (A) (A) (A)
                 (A) (A) (A) (A) (A) (A)
       Virtual   (A) (A) (A) (A) (A) (A) (A) (A) (A) (A) (A) (A)
                 (A) (A) (A) (A) (A) (A) (A) (A) (A) (A) (A) (A)
                 (A) (A) (A) (A) (A) (A) (A) (A) (A) (A) (A) (A)
                 (A) (A) (A) (A) (A) (A) (A) (A) (A) (A) (A) (A)
                 (A) (A) (A) (A) (A) (A) (A) (A) (A) (A) (A) (A)
                 (A) (A) (A) (A) (A) (A) (A) (A) (A) (A) (A) (A)
                 (A) (A) (A) (A) (A) (A) (A) (A) (A) (A) (A) (A)
                 (A) (A) (A) (A) (A) (A) (A) (A) (A) (A) (A) (A)
                 (A) (A) (A) (A) (A) (A) (A) (A) (A) (A) (A) (A)
                 (A) (A) (A) (A) (A) (A) (A) (A) (A) (A) (A) (A)
                 (A) (A) (A) (A) (A) (A) (A) (A) (A) (A) (A) (A)
                 (A) (A) (A) (A) (A) (A) (A) (A) (A) (A) (A) (A)
                 (A) (A) (A) (A) (A) (A) (A) (A) (A) (A) (A) (A)
                 (A) (A) (A) (A) (A) (A) (A) (A) (A) (A) (A) (A)
                 (A) (A) (A) (A) (A) (A) (A) (A) (A) (A) (A)
 The electronic state is 1-A.
 Alpha  occ. eigenvalues --  -14.84800 -14.81996 -14.77838 -10.59919 -10.57168
 Alpha  occ. eigenvalues --   -1.21921  -1.01440  -0.91101  -0.73930  -0.71171
 Alpha  occ. eigenvalues --   -0.65261  -0.55351  -0.53718  -0.52141  -0.41540
 Alpha  occ. eigenvalues --   -0.37338  -0.35060  -0.32858
 Alpha virt. eigenvalues --    0.00079   0.02119   0.02870   0.03814   0.06032
 Alpha virt. eigenvalues --    0.06297   0.06836   0.07662   0.09580   0.11384
 Alpha virt. eigenvalues --    0.13224   0.13760   0.14715   0.17462   0.19246
 Alpha virt. eigenvalues --    0.20157   0.20204   0.22016   0.22836   0.23086
 Alpha virt. eigenvalues --    0.24126   0.24362   0.26020   0.28321   0.30803
 Alpha virt. eigenvalues --    0.31615   0.33595   0.36970   0.43947   0.47621
 Alpha virt. eigenvalues --    0.49841   0.52243   0.54782   0.58660   0.59189
 Alpha virt. eigenvalues --    0.61904   0.62890   0.63838   0.66922   0.70144
 Alpha virt. eigenvalues --    0.71266   0.71766   0.75592   0.78874   0.79637
 Alpha virt. eigenvalues --    0.80049   0.82976   0.83748   0.85222   0.87665
 Alpha virt. eigenvalues --    0.88096   0.90541   0.94553   0.94960   0.97993
 Alpha virt. eigenvalues --    0.99942   1.06183   1.08235   1.10274   1.16054
 Alpha virt. eigenvalues --    1.18429   1.22400   1.23109   1.23324   1.27584
 Alpha virt. eigenvalues --    1.33852   1.37299   1.39504   1.43179   1.43739
 Alpha virt. eigenvalues --    1.44145   1.45883   1.56928   1.66279   1.67562
 Alpha virt. eigenvalues --    1.67928   1.73807   1.78069   1.79536   1.81962
 Alpha virt. eigenvalues --    1.84857   1.92212   1.95446   2.02389   2.07696
 Alpha virt. eigenvalues --    2.16976   2.26338   2.48584   2.64518   2.70498
 Alpha virt. eigenvalues --    2.75383   2.76266   2.78443   2.81315   2.81675
 Alpha virt. eigenvalues --    2.93057   2.94000   3.05013   3.07086   3.13110
 Alpha virt. eigenvalues --    3.15456   3.17273   3.17655   3.19820   3.28803
 Alpha virt. eigenvalues --    3.29168   3.31608   3.33828   3.35867   3.36737
 Alpha virt. eigenvalues --    3.40341   3.42925   3.44532   3.51163   3.52656
 Alpha virt. eigenvalues --    3.57609   3.59407   3.60336   3.65191   3.71682
 Alpha virt. eigenvalues --    3.74306   3.76188   3.81395   3.84086   3.85538
 Alpha virt. eigenvalues --    3.86687   3.90389   3.91425   3.99081   4.07114
 Alpha virt. eigenvalues --    4.08646   4.13074   4.13377   4.16662   4.18480
 Alpha virt. eigenvalues --    4.25856   4.29149   4.38870   4.45218   4.52312
 Alpha virt. eigenvalues --    4.61203   4.71275   4.73663   4.81771   4.87994
 Alpha virt. eigenvalues --    4.88856   4.92244   4.93367   4.93762   4.94677
 Alpha virt. eigenvalues --    4.96103   5.07300   5.07337   5.09152   5.15470
 Alpha virt. eigenvalues --    5.17191   5.21543   5.28708   5.34541   5.34718
 Alpha virt. eigenvalues --    5.50296   5.50815   5.55183   5.57139   5.67156
 Alpha virt. eigenvalues --    5.76770   5.84837   5.92404   6.07087   6.09692
 Alpha virt. eigenvalues --    6.27374   6.30972   6.63449   6.86065  24.28678
 Alpha virt. eigenvalues --   24.88773  35.84964  35.97960  36.08474
          Condensed to atoms (all electrons):
               1          2          3          4          5          6
     1  C    5.279660   0.462832   0.386663  -0.025292  -0.111238  -0.068669
     2  C    0.462832   5.162554   0.031220   0.440002   0.237512   0.143251
     3  H    0.386663   0.031220   0.462014  -0.002185  -0.002649   0.005522
     4  H   -0.025292   0.440002  -0.002185   0.478441  -0.044152   0.002044
     5  N   -0.111238   0.237512  -0.002649  -0.044152   6.697280   0.272089
     6  N   -0.068669   0.143251   0.005522   0.002044   0.272089   6.713687
     7  N    0.319588  -0.385692  -0.029460   0.006086   0.102820   0.061998
     8  H   -0.041503   0.012035  -0.000648   0.000095   0.000814  -0.021168
               7          8
     1  C    0.319588  -0.041503
     2  C   -0.385692   0.012035
     3  H   -0.029460  -0.000648
     4  H    0.006086   0.000095
     5  N    0.102820   0.000814
     6  N    0.061998  -0.021168
     7  N    6.501217   0.389766
     8  H    0.389766   0.421791
 Mulliken charges:
               1
     1  C   -0.202040
     2  C   -0.103715
     3  H    0.149524
     4  H    0.144962
     5  N   -0.152476
     6  N   -0.108753
     7  N    0.033679
     8  H    0.238819
 Sum of Mulliken charges =   0.00000
 Mulliken charges with hydrogens summed into heavy atoms:
               1
     1  C   -0.052517
     2  C    0.041247
     5  N   -0.152476
     6  N   -0.108753
     7  N    0.272499
 Electronic spatial extent (au):  <R**2>=            269.8163
 Charge=              0.0000 electrons
 Dipole moment (field-independent basis, Debye):
    X=              2.0684    Y=              3.9848    Z=             -0.0003  Tot=              4.4897
 Quadrupole moment (field-independent basis, Debye-Ang):
   XX=            -23.2623   YY=            -30.6376   ZZ=            -30.7698
   XY=             -0.2331   XZ=             -0.0004   YZ=             -0.0002
 Traceless Quadrupole moment (field-independent basis, Debye-Ang):
   XX=              4.9609   YY=             -2.4143   ZZ=             -2.5465
   XY=             -0.2331   XZ=             -0.0004   YZ=             -0.0002
 Octapole moment (field-independent basis, Debye-Ang**2):
  XXX=             12.6049  YYY=             13.3259  ZZZ=             -0.0001  XYY=              2.4730
  XXY=              6.8312  XXZ=             -0.0012  XZZ=              1.5449  YZZ=             -1.2528
  YYZ=             -0.0003  XYZ=             -0.0001
 Hexadecapole moment (field-independent basis, Debye-Ang**3):
 XXXX=           -121.3933 YYYY=           -161.6753 ZZZZ=            -32.4871 XXXY=             -4.3825
 XXXZ=             -0.0022 YYYX=              4.2679 YYYZ=             -0.0010 ZZZX=             -0.0003
 ZZZY=             -0.0002 XXYY=            -58.8686 XXZZ=            -34.7427 YYZZ=            -35.9523
 XXYZ=             -0.0004 YYXZ=              0.0001 ZZXY=              0.5868
 N-N= 1.646305135999D+02 E-N=-8.939943640009D+02  KE= 2.411967174219D+02
 There are a total of       65172 grid points.
 ElSum from          density=       36.0000099784
 ElSum from atomic densities=       36.0000400349

 Hirshfeld populations at iteration   1 (CX, CA, CB, DipXYZ):
               1          2          3          4          5          6
     1  C    0.000001   3.004986   3.004986   0.081786   0.102269  -0.000005
     2  C    0.000001   3.014839   3.014839  -0.106645   0.024694   0.000002
     3  H    0.000002   0.462711   0.462711   0.041451   0.177703  -0.000009
     4  H    0.000002   0.467421   0.467421  -0.167968   0.065035  -0.000005
     5  N    0.000014   3.575008   3.575008   0.116764   0.130628   0.000009
     6  N    0.000025   3.545718   3.545718  -0.081089   0.188105  -0.000002
     7  N    0.000001   3.512486   3.512486   0.096629  -0.011416  -0.000009
     8  H    0.000001   0.416834   0.416834   0.227258   0.030899  -0.000036
       Tot   0.000046  18.000005  18.000005   0.208184   0.707917  -0.000055

 Dip from Atomic Chgs              0.605463   0.859792  -0.000045
         Total Dipole              0.813647   1.567708  -0.000100

 Hirshfeld charges, spin densities, dipoles, and CM5 charges using IRadAn=      4:
              Q-H        S-H        Dx         Dy         Dz        Q-CM5   
     1  C   -0.009973   0.000000   0.081786   0.102269  -0.000005   0.022707
     2  C   -0.029679   0.000000  -0.106645   0.024694   0.000002   0.008290
     3  H    0.074577   0.000000   0.041451   0.177703  -0.000009   0.138728
     4  H    0.065159   0.000000  -0.167968   0.065035  -0.000005   0.129878
     5  N   -0.150017   0.000000   0.116764   0.130628   0.000009  -0.241509
     6  N   -0.091437   0.000000  -0.081089   0.188105  -0.000002  -0.124672
     7  N   -0.024973   0.000000   0.096629  -0.011416  -0.000009  -0.302180
     8  H    0.166331   0.000000   0.227258   0.030899  -0.000036   0.368749
       Tot  -0.000010   0.000000   0.208184   0.707917  -0.000055  -0.000010
 Hirshfeld charges with hydrogens summed into heavy atoms:
              Q-H       Q-CM5   
     1  C    0.064604   0.161434
     2  C    0.035480   0.138168
     5  N   -0.150017  -0.241509
     6  N   -0.091437  -0.124672
     7  N    0.141359   0.066569
 
 EQQ= 0.000000000000E+00 EQD= 0.000000000000E+00 EDD= 0.880468780914E-02
 EQQ+QD+DD= 0.880468780914E-02
 
 No NMR shielding tensors so no spin-rotation constants.
 Leave Link  601 at Tue Jul 21 14:57:19 2020, MaxMem=   268435456 cpu:         1.4
 (Enter /Applications/Gaussian/g09/l9999.exe)
 1\1\GINC-DONALD4\SP\RM062X\6-311+G(2df,2p)\C2H3N3\BOGDAN\21-Jul-2020\0
 \\#p M062X/6-311+(2df,2p) Pop=CM5 geom=check guess=read\\triazole\\0,1
 \C,0,-5.753282015,1.9063604951,0.1242028695\C,0,-4.4238762645,1.932390
 8256,-0.2301637791\H,0,-6.4899704769,1.1202650665,0.1838076908\H,0,-3.
 7810772767,1.1244824382,-0.5469231754\N,0,-3.9645100509,3.2141584985,-
 0.1270738718\N,0,-4.9361297182,3.987262346,0.2722340125\N,0,-6.0241275
 62,3.2005100691,0.426725583\H,0,-6.8925596158,3.615669811,0.7346257005
 \\Version=EM64M-G09RevD.01\State=1-A\HF=-242.2092133\RMSD=2.783e-09\Di
 pole=-1.4536457,-0.9793252,0.2189065\Quadrupole=1.8228924,-0.4566555,-
 1.3662369,-2.2066329,-1.3941321,0.8504439\PG=C01 [X(C2H3N3)]\\@


 SCIENCE IS LONG AND LIFE IS SHORT.

                     DON MOSER IN THE FEBRUARY 1979 SMITHSONIAN
 Job cpu time:       0 days  0 hours  0 minutes 49.6 seconds.
 File lengths (MBytes):  RWF=     16 Int=      0 D2E=      0 Chk=      3 Scr=      1
 Normal termination of Gaussian 09 at Tue Jul 21 14:57:19 2020.
