LAMMPS data file Created by LigParGen - (Written by Leela S. Dodda)

      34 atoms
      35 bonds
      64 angles
      89 dihedrals
      25 impropers
 
      34 atom types
      35 bond types
      64 angle types
      89 dihedral types
      25 improper types
 
   -3.708940    46.291060 xlo xhi
   -0.982150    49.017850 ylo yhi
   -3.778610    46.221390 zlo zhi

Masses

       1     15.999  
       2     32.060  
       3     12.011  
       4     12.011  
       5     12.011  
       6     12.011  
       7     12.011  
       8     12.011  
       9     12.011  
      10     12.011  
      11     14.007  
      12     12.011  
      13     12.011  
      14     12.011  
      15     15.999  
      16     12.011  
      17     15.999  
      18      1.008  
      19      1.008  
      20      1.008  
      21      1.008  
      22      1.008  
      23      1.008  
      24      1.008  
      25      1.008  
      26      1.008  
      27      1.008  
      28      1.008  
      29      1.008  
      30      1.008  
      31      1.008  
      32      1.008  
      33      1.008  
      34      1.008  

Pair Coeffs 

       1      0.170  2.9600000 
       2      0.250  3.5500000 
       3      0.066  3.5000000 
       4      0.066  3.5000000 
       5      0.070  3.5500000 
       6      0.070  3.5500000 
       7      0.070  3.5500000 
       8      0.070  3.5500000 
       9      0.070  3.5500000 
      10      0.070  3.5500000 
      11      0.170  3.2500000 
      12      0.083  3.4500000 
      13      0.066  3.5000000 
      14      0.083  3.4500000 
      15      0.140  2.9000000 
      16      0.083  3.4500000 
      17      0.170  2.9600000 
      18      0.030  2.5000000 
      19      0.030  2.5000000 
      20      0.030  2.5000000 
      21      0.030  2.5000000 
      22      0.030  2.4200000 
      23      0.030  2.4200000 
      24      0.030  2.4200000 
      25      0.030  2.4200000 
      26      0.030  2.4200000 
      27      0.000  0.0000000 
      28      0.030  2.5000000 
      29      0.030  2.5000000 
      30      0.030  2.5000000 
      31      0.030  2.5000000 
      32      0.030  2.5000000 
      33      0.030  2.5000000 
      34      0.030  2.5000000 

Bond Coeffs 

       1   700.0000     1.4400 
       2   340.0000     1.7700 
       3   268.0000     1.5290 
       4   317.0000     1.5100 
       5   469.0000     1.4000 
       6   469.0000     1.4000 
       7   469.0000     1.4000 
       8   469.0000     1.4000 
       9   469.0000     1.4000 
      10   434.0000     1.6700 
      11   337.0000     1.4490 
      12   280.0000     1.5100 
      13   260.0000     1.5200 
      14   320.0000     1.4100 
      15   260.0000     1.5200 
      16   700.0000     1.4400 
      17   340.0000     1.0900 
      18   340.0000     1.0900 
      19   340.0000     1.0900 
      20   340.0000     1.0900 
      21   367.0000     1.0800 
      22   367.0000     1.0800 
      23   367.0000     1.0800 
      24   367.0000     1.0800 
      25   367.0000     1.0800 
      26   434.0000     1.0100 
      27   340.0000     1.0900 
      28   340.0000     1.0900 
      29   340.0000     1.0900 
      30   340.0000     1.0880 
      31   340.0000     1.0880 
      32   340.0000     1.0880 
      33   340.0000     1.0880 
      34   469.0000     1.4000 
      35   320.0000     1.4100 

Angle Coeffs 

       1     74.000    108.900
       2     50.000    108.600
       3     63.000    114.000
       4     70.000    120.000
       5     63.000    120.000
       6     63.000    120.000
       7     63.000    120.000
       8     70.000    120.000
       9    120.000    107.000
      10     50.000    120.000
      11     80.000    109.700
      12     37.500    126.000
      13     50.000     90.000
      14     37.500    126.000
      15    104.000    119.000
      16     35.000    109.500
      17     35.000    109.500
      18     37.500    110.700
      19     37.500    110.700
      20     35.000    120.000
      21     35.000    120.000
      22     35.000    120.000
      23     35.000    120.000
      24     35.000    120.000
      25    100.000    111.000
      26     37.500    110.700
      27     37.500    110.700
      28     37.500    110.700
      29     37.500    117.200
      30     37.500    117.200
      31     37.500    117.200
      32     37.500    117.200
      33     37.500    117.200
      34     40.000    113.000
      35     35.000    120.000
      36     35.000    114.300
      37     63.000    120.000
      38     63.000    120.000
      39     74.000    108.900
      40     35.000    120.000
      41     50.000     90.000
      42     37.500    117.200
      43     37.500    110.700
      44     37.500    117.200
      45     35.000    114.300
      46     35.000    120.000
      47     33.000    107.800
      48     37.500    110.700
      49    100.000    103.000
      50     35.000    120.000
      51     37.500    117.200
      52     33.000    107.800
      53     33.000    107.800
      54     35.000    109.500
      55     33.000    107.800
      56     30.000     83.000
      57    120.000    107.000
      58     35.000    109.500
      59     60.000     90.000
      60     63.000    120.000
      61     37.500    117.200
      62     37.500    117.200
      63     33.000    107.800
      64     35.000    120.000

Dihedral Coeffs  

       1      0.000      0.000      0.000      0.000 
       2      1.262     -0.198      0.465      0.000 
       3      0.000      0.000      0.000      0.000 
       4      0.000      7.250      0.000      0.000 
       5      0.000      7.250      0.000      0.000 
       6      0.000      7.250      0.000      0.000 
       7      0.000      0.000      0.000      0.000 
       8      2.929     -2.533      0.497      0.000 
       9      0.000      0.000      0.000      0.000 
      10      0.000      0.000      0.000      0.000 
      11      0.000      0.000      0.300      0.000 
      12      0.000      0.000      0.000      0.000 
      13      0.000      0.000      0.000      0.000 
      14      0.000      0.000      0.000      0.000 
      15      0.000      7.250      0.000      0.000 
      16      1.671     -4.901      0.669      0.000 
      17      2.929     -2.533      0.497      0.000 
      18      0.000      7.250      0.000      0.000 
      19      0.000      7.250      0.000      0.000 
      20      0.000      0.000      0.300      0.000 
      21      0.000      0.000      0.000      0.000 
      22      0.000      0.000      0.000      0.000 
      23      0.000      7.250      0.000      0.000 
      24      0.000      0.000      0.000      0.000 
      25      0.000      0.000      0.000      0.000 
      26      0.000      7.250      0.000      0.000 
      27      0.000      0.000      0.350      0.000 
      28      0.000      7.250      0.000      0.000 
      29      0.000      0.000      0.000      0.000 
      30      0.000      0.000      0.000      0.000 
      31      2.074     -2.966      2.473      0.000 
      32      0.000      7.250      0.000      0.000 
      33      0.000      7.250      0.000      0.000 
      34      0.000      0.000      0.350      0.000 
      35      0.000      0.000      0.300      0.000 
      36      0.000      0.000      0.000      0.000 
      37      0.000      0.000      0.000      0.000 
      38      0.000      0.000      0.000      0.000 
      39      0.000      7.250      0.000      0.000 
      40      0.000      0.000      0.000      0.000 
      41      0.000      0.000      0.300      0.000 
      42      0.000      0.000      0.000      0.000 
      43      0.000      0.000      0.000      0.000 
      44      0.000      0.000      0.000      0.000 
      45      0.000      7.250      0.000      0.000 
      46      0.000      0.000      0.300      0.000 
      47      2.929     -2.533      0.497      0.000 
      48      0.000      0.000      0.000      0.000 
      49      0.000      0.000      0.000      0.000 
      50      0.000      0.000      0.000      0.000 
      51      0.000      7.250      0.000      0.000 
      52      0.000      0.000      0.000      0.000 
      53      0.000      0.000      0.000      0.000 
      54      0.000      0.000      0.350      0.000 
      55      0.000      0.000      0.000      0.000 
      56      0.000      7.250      0.000      0.000 
      57      0.000      0.000      0.000      0.000 
      58      0.000      0.000      0.452      0.000 
      59      0.000      0.000      0.462      0.000 
      60      0.000      0.000      0.000      0.000 
      61      0.000      7.250      0.000      0.000 
      62      0.000      0.000      0.300      0.000 
      63      0.000      0.000      0.452      0.000 
      64      0.000      7.250      0.000      0.000 
      65      0.000      7.250      0.000      0.000 
      66      0.000      0.000      0.000      0.000 
      67      0.000      7.250      0.000      0.000 
      68      0.000      7.250      0.000      0.000 
      69      0.000      7.250      0.000      0.000 
      70      0.000      0.000      0.000      0.000 
      71      0.000      0.000      0.000      0.000 
      72      0.000      0.000      0.000      0.000 
      73      0.000      0.000      0.000      0.000 
      74      0.000      7.250      0.000      0.000 
      75      0.000      0.000      0.000      0.000 
      76      0.000      0.000      0.000      0.000 
      77      0.000      7.250      0.000      0.000 
      78      0.000      0.000      0.300      0.000 
      79      0.000      7.250      0.000      0.000 
      80      0.000      0.000      0.000      0.000 
      81      0.000      0.000      0.350      0.000 
      82      0.000      0.000      0.300      0.000 
      83      0.000      0.000      0.300      0.000 
      84      0.000      0.000      0.000      0.000 
      85      0.000      0.000      0.462      0.000 
      86      0.000      0.000      0.300      0.000 
      87      0.000      0.000      0.000      0.000 
      88      0.000      0.000      0.000      0.000 
      89      0.000      0.000      0.000      0.000 

Improper Coeffs 

       1      2.500      -1       2 
       2      0.000      -1       2 
       3      0.000      -1       2 
       4      0.000      -1       2 
       5      0.000      -1       2 
       6      0.000      -1       2 
       7      0.000      -1       2 
       8      0.000      -1       2 
       9      0.000      -1       2 
      10      2.500      -1       2 
      11      2.500      -1       2 
      12      2.500      -1       2 
      13      2.500      -1       2 
      14      2.500      -1       2 
      15      2.500      -1       2 
      16      0.000      -1       2 
      17      0.000      -1       2 
      18      0.000      -1       2 
      19      0.000      -1       2 
      20      0.000      -1       2 
      21      0.000      -1       2 
      22      0.000      -1       2 
      23      0.000      -1       2 
      24      0.000      -1       2 
      25      0.000      -1       2 

Atoms 

     1      1      1 -0.54400000    1.000  1.00000  0.00000
     2      1      2 1.57470000   -0.445  1.00000  0.00000
     3      1      3 -0.50250000   -0.982  1.00000  1.69572
     4      1      4 -0.10090000   -2.492  1.11014  1.83617
     5      1      5 -0.08340000   -2.873  1.16939  3.29528
     6      1      6 -0.14330000   -3.009  2.40165  3.94971
     7      1      7 -0.14470000   -3.309  2.44739  5.31274
     8      1      8 -0.14420000   -3.475  1.26510  6.03153
     9      1      9 -0.14330000   -3.341  0.03651  5.38766
    10      1     10 -0.13830000   -3.043 -0.01407  4.02735
    11      1     11 -1.65140000   -0.924  2.53930 -0.51861
    12      1     12 0.38640000   -0.600  3.11494 -1.88923
    13      1     13 -0.22370000   -1.265  4.48936 -1.98437
    14      1     14 -0.04960000    0.873  3.14685 -2.37292
    15      1     15 -0.36120000    0.451  2.75778 -3.71302
    16      1     16 -0.01610000   -0.797  2.24323 -3.15316
    17      1     17 -0.54400000   -1.205  0.02237 -0.74340
    18      1     18 0.17040000   -0.466  1.82889  2.19181
    19      1     19 0.17040000   -0.611  0.06994  2.13637
    20      1     20 0.12020000   -2.987  0.25584  1.36095
    21      1     21 0.12020000   -2.871  2.00227  1.32459
    22      1     22 0.14480000   -2.882  3.33443  3.40577
    23      1     23 0.15050000   -3.411  3.40610  5.81517
    24      1     24 0.15080000   -3.709  1.30198  7.09224
    25      1     25 0.15160000   -3.469 -0.88659  5.94777
    26      1     26 0.15200000   -2.942 -0.98215  3.54069
    27      1     27 0.66360000   -0.792  3.23103  0.22042
    28      1     28 0.10330000   -0.872  5.16278 -1.21389
    29      1     29 0.10330000   -2.349  4.41037 -1.84493
    30      1     30 0.10330000   -1.085  4.96358 -2.95600
    31      1     31 0.13090000    1.562  2.40497 -1.96304
    32      1     32 0.13090000    1.358  4.12750 -2.36734
    33      1     33 0.13150000   -0.739  1.15898 -3.03052
    34      1     34 0.13150000   -1.658  2.49578 -3.77861

Bonds 

     1      1      2      1
     2      2      3      2
     3      3      4      3
     4      4      5      4
     5      5      6      5
     6      6      7      6
     7      7      8      7
     8      8      9      8
     9      9     10      5
    10     10     11      2
    11     11     12     11
    12     12     13     12
    13     13     14     12
    14     14     15     14
    15     15     16     12
    16     16     17      2
    17     17     18      3
    18     18     19      3
    19     19     20      4
    20     20     21      4
    21     21     22      6
    22     22     23      7
    23     23     24      8
    24     24     25      9
    25     25     26     10
    26     26     27     11
    27     27     28     13
    28     28     29     13
    29     29     30     13
    30     30     31     14
    31     31     32     14
    32     32     33     16
    33     33     34     16
    34     34     10      9
    35     35     16     15

Angles 

     1      1      1      2      3
     2      2      2      3      4
     3      3      3      4      5
     4      4      4      5      6
     5      5      5      6      7
     6      6      6      7      8
     7      7      7      8      9
     8      8      4      5     10
     9      9      1      2     11
    10     10      2     11     12
    11     11     11     12     13
    12     12     11     12     14
    13     13     12     14     15
    14     14     11     12     16
    15     15      1      2     17
    16     16      2      3     18
    17     17      2      3     19
    18     18      3      4     20
    19     19      3      4     21
    20     20      5      6     22
    21     21      6      7     23
    22     22      7      8     24
    23     23      8      9     25
    24     24      5     10     26
    25     25      2     11     27
    26     26     12     13     28
    27     27     12     13     29
    28     28     12     13     30
    29     29     12     14     31
    30     30     12     14     32
    31     31     12     16     33
    32     32     12     16     34
    33     33     13     12     14
    34     34     12     11     27
    35     35      7      6     22
    36     36     31     14     32
    37     37      6      5     10
    38     38      5     10      9
    39     39      3      2     17
    40     40      9      8     24
    41     41     12     16     15
    42     42     13     12     16
    43     43      4      3     19
    44     44     15     14     31
    45     45     33     16     34
    46     46      8      7     23
    47     47     18      3     19
    48     48      4      3     18
    49     49      3      2     11
    50     50     10      9     25
    51     51     15     16     34
    52     52     29     13     30
    53     53     28     13     29
    54     54      5      4     20
    55     55     28     13     30
    56     56     14     12     16
    57     57     11      2     17
    58     58      5      4     21
    59     59     14     15     16
    60     60      8      9     10
    61     61     15     16     33
    62     62     15     14     32
    63     63     20      4     21
    64     64      9     10     26

Dihedrals

     1      1      4      3      2      1 
     2      2      5      4      3      2 
     3      3      6      5      4      3 
     4      4      7      6      5      4 
     5      5      8      7      6      5 
     6      6      9      8      7      6 
     7      7     12     11      2      1 
     8      8     13     12     11      2 
     9      9     15     14     12     11 
    10     10     28     13     12     11 
    11     11     29     13     12     14 
    12     12     32     14     12     16 
    13     13     33     16     12     13 
    14     14     27     11     12     14 
    15     15      8      9     10      5 
    16     16     27     11      2      3 
    17     17     14     12     11      2 
    18     18     10      9      8      7 
    19     19     22      6      5      4 
    20     20     20      4      3     18 
    21     21     33     16     12     14 
    22     22     34     16     12     13 
    23     23     22      6      5     10 
    24     24     34     16     12     14 
    25     25     19      3      2     11 
    26     26     24      8      9     10 
    27     27     18      3      2     17 
    28     28     26     10      9     25 
    29     29     17      2      3      4 
    30     30     32     14     12     11 
    31     31     12     11      2      3 
    32     32     26     10      5      4 
    33     33     26     10      5      6 
    34     34     19      3      2      1 
    35     35     28     13     12     16 
    36     36     21      4      5     10 
    37     37     31     14     15     16 
    38     38     27     11      2      1 
    39     39     10      5      6      7 
    40     40     11      2      3      4 
    41     41     21      4      3     19 
    42     42     27     11     12     16 
    43     43     15     16     12     11 
    44     44     29     13     12     11 
    45     45     22      6      7      8 
    46     46     30     13     12     14 
    47     47     16     12     11      2 
    48     48     27     11      2     17 
    49     49     33     16     15     14 
    50     50     31     14     12     13 
    51     51      9     10      5      6 
    52     52     33     16     12     11 
    53     53     34     16     15     14 
    54     54     18      3      2      1 
    55     55     31     14     12     16 
    56     56     25      9      8      7 
    57     57     20      4      5      6 
    58     58     21      4      3      2 
    59     59     18      3      4      5 
    60     60     17      2     11     12 
    61     61     23      7      6      5 
    62     62     28     13     12     14 
    63     63     20      4      3      2 
    64     64     24      8      7      6 
    65     65     24      8      7     23 
    66     66     10      5      4      3 
    67     67     23      7      6     22 
    68     68      9     10      5      4 
    69     69     26     10      9      8 
    70     70     30     13     12     11 
    71     71     27     11     12     13 
    72     72     20      4      5     10 
    73     73     31     14     12     11 
    74     74     25      9     10      5 
    75     75     32     14     12     13 
    76     76     34     16     12     11 
    77     77     25      9      8     24 
    78     78     30     13     12     16 
    79     79     23      7      8      9 
    80     80     18      3      2     11 
    81     81     19      3      2     17 
    82     82     20      4      3     19 
    83     83     21      4      3     18 
    84     84     21      4      5      6 
    85     85     19      3      4      5 
    86     86     29     13     12     16 
    87     87     32     14     15     16 
    88     88     15     14     12     13 
    89     89     15     16     12     13 

Impropers

     1      1      5     10      4      6 
     2      2      2      1     11      3 
     3      3     12     11     13     14 
     4      4     12     11     13     16 
     5      5      2     17      3      1 
     6      6      3     18      4      2 
     7      7      3      2     19      4 
     8      8      4      3     20      5 
     9      9      4      5      3     21 
    10     10      6      5     22      7 
    11     11      7      8     23      6 
    12     12      8      9      7     24 
    13     13      9     25     10      8 
    14     14     10      9     26      5 
    15     15     11      2     27     12 
    16     16     13     28     12     29 
    17     17     13     28     12     30 
    18     18     14     15     12     31 
    19     19     14     12     15     32 
    20     20     16     33     12     15 
    21     21     16     34     12     15 
    22     22     12     14     15     16 
    23     23     12     14     15     16 
    24     24     12     14     15     16 
    25     25     12     14     15     16 
