LAMMPS data file Created by LigParGen - (Written by Leela S. Dodda)

      42 atoms
      44 bonds
      78 angles
     116 dihedrals
      29 impropers
 
      42 atom types
      44 bond types
      78 angle types
     116 dihedral types
      29 improper types
 
   -9.223030    40.776970 xlo xhi
   -1.496160    48.503840 ylo yhi
   -3.000800    46.999200 zlo zhi

Masses

       1     15.999  
       2     32.060  
       3     14.007  
       4     12.011  
       5     12.011  
       6     32.060  
       7     15.999  
       8     12.011  
       9     12.011  
      10     12.011  
      11     12.011  
      12     12.011  
      13     12.011  
      14     12.011  
      15     12.011  
      16     12.011  
      17     12.011  
      18     12.011  
      19     12.011  
      20     12.011  
      21     12.011  
      22     12.011  
      23     15.999  
      24      1.008  
      25      1.008  
      26      1.008  
      27      1.008  
      28      1.008  
      29      1.008  
      30      1.008  
      31      1.008  
      32      1.008  
      33      1.008  
      34      1.008  
      35      1.008  
      36      1.008  
      37      1.008  
      38      1.008  
      39      1.008  
      40      1.008  
      41      1.008  
      42      1.008  

Pair Coeffs 

       1      0.170  2.9600000 
       2      0.250  3.5500000 
       3      0.170  3.2500000 
       4      0.083  3.4500000 
       5      0.083  3.4500000 
       6      0.395  3.5600000 
       7      0.170  2.9600000 
       8      0.083  3.4500000 
       9      0.066  3.5000000 
      10      0.066  3.5000000 
      11      0.070  3.5500000 
      12      0.070  3.5500000 
      13      0.070  3.5500000 
      14      0.070  3.5500000 
      15      0.070  3.5500000 
      16      0.070  3.5500000 
      17      0.070  3.5500000 
      18      0.070  3.5500000 
      19      0.070  3.5500000 
      20      0.070  3.5500000 
      21      0.070  3.5500000 
      22      0.070  3.5500000 
      23      0.170  2.9600000 
      24      0.000  0.0000000 
      25      0.030  2.5000000 
      26      0.030  2.5000000 
      27      0.030  2.5000000 
      28      0.030  2.5000000 
      29      0.030  2.5000000 
      30      0.030  2.5000000 
      31      0.030  2.5000000 
      32      0.030  2.5000000 
      33      0.030  2.4200000 
      34      0.030  2.4200000 
      35      0.030  2.4200000 
      36      0.030  2.4200000 
      37      0.030  2.4200000 
      38      0.030  2.4200000 
      39      0.030  2.4200000 
      40      0.030  2.4200000 
      41      0.030  2.4200000 
      42      0.030  2.4200000 

Bond Coeffs 

       1   700.0000     1.4400 
       2   434.0000     1.6700 
       3   337.0000     1.4490 
       4   260.0000     1.5200 
       5   340.0000     1.7900 
       6   700.0000     1.5300 
       7   260.0000     1.5200 
       8   280.0000     1.5100 
       9   268.0000     1.5290 
      10   317.0000     1.5100 
      11   469.0000     1.4000 
      12   469.0000     1.4000 
      13   469.0000     1.4000 
      14   469.0000     1.4000 
      15   469.0000     1.4000 
      16   340.0000     1.7700 
      17   469.0000     1.4000 
      18   469.0000     1.4000 
      19   469.0000     1.4000 
      20   469.0000     1.4000 
      21   469.0000     1.4000 
      22   700.0000     1.4400 
      23   434.0000     1.0100 
      24   340.0000     1.0880 
      25   340.0000     1.0880 
      26   340.0000     1.0880 
      27   340.0000     1.0880 
      28   340.0000     1.0900 
      29   340.0000     1.0900 
      30   340.0000     1.0900 
      31   340.0000     1.0900 
      32   367.0000     1.0800 
      33   367.0000     1.0800 
      34   367.0000     1.0800 
      35   367.0000     1.0800 
      36   367.0000     1.0800 
      37   367.0000     1.0800 
      38   367.0000     1.0800 
      39   367.0000     1.0800 
      40   367.0000     1.0800 
      41   367.0000     1.0800 
      42   340.0000     1.7900 
      43   469.0000     1.4000 
      44   469.0000     1.4000 

Angle Coeffs 

       1    120.000    107.000
       2     50.000    120.000
       3     37.500    126.000
       4     50.000    108.600
       5     74.000    107.000
       6     37.500    126.000
       7     80.000    109.700
       8     58.350    112.700
       9     63.000    114.000
      10     70.000    120.000
      11     63.000    120.000
      12     63.000    120.000
      13     63.000    120.000
      14     70.000    120.000
      15     74.000    107.200
      16     85.000    119.400
      17     63.000    120.000
      18     63.000    120.000
      19     63.000    120.000
      20     85.000    119.400
      21    104.000    119.000
      22    100.000    111.000
      23     37.500    117.200
      24     37.500    117.200
      25     37.500    117.200
      26     37.500    117.200
      27     37.500    110.700
      28     37.500    110.700
      29     37.500    110.700
      30     37.500    110.700
      31     35.000    120.000
      32     35.000    120.000
      33     35.000    120.000
      34     35.000    120.000
      35     35.000    120.000
      36     35.000    120.000
      37     35.000    120.000
      38     35.000    120.000
      39     35.000    120.000
      40     35.000    120.000
      41     37.500    110.700
      42     33.000    107.800
      43     35.000    120.000
      44     74.000    107.200
      45     35.000    120.000
      46     35.000    120.000
      47     35.000    109.500
      48     35.000    120.000
      49     37.500    110.700
      50     35.000    120.000
      51    100.000    103.000
      52     37.500    117.200
      53     35.000    120.000
      54     35.000    120.000
      55     63.000    120.000
      56     35.000    109.500
      57     50.000    108.600
      58     63.000    120.000
      59     35.000    114.300
      60    120.000    107.000
      61     30.000     83.000
      62     35.000    120.000
      63     35.000    109.500
      64     35.000    120.000
      65     35.000    114.300
      66     40.000    113.000
      67     74.000    107.000
      68     63.000    120.000
      69     35.000    109.500
      70     35.000    109.500
      71     33.000    107.800
      72     63.000    120.000
      73     62.000     96.000
      74     63.000    120.000
      75     37.500    117.200
      76     35.000    120.000
      77     63.000    120.000
      78     35.000    109.500

Dihedral Coeffs  

       1      0.000      0.000      0.000      0.000 
       2      2.929     -2.533      0.497      0.000 
       3      0.000      0.000      0.000      0.000 
       4      0.000      0.000      0.000      0.000 
       5      0.845     -0.962      0.713      0.000 
       6     -1.697     -0.456      0.585      0.000 
       7      0.000      0.000      0.000      0.000 
       8      0.000      7.250      0.000      0.000 
       9      0.000      7.250      0.000      0.000 
      10      0.000      7.250      0.000      0.000 
      11      0.000      0.000      0.000      0.000 
      12      0.000      7.250      0.000      0.000 
      13      0.000      7.250      0.000      0.000 
      14      0.000      7.250      0.000      0.000 
      15      0.000      0.000      0.000      0.000 
      16      0.000      0.000      0.000      0.000 
      17      0.000      7.250      0.000      0.000 
      18      0.000      0.000      0.000      0.000 
      19      0.000      0.000      0.300      0.000 
      20      1.671     -4.901      0.669      0.000 
      21      0.000      0.000      0.300      0.000 
      22      0.000      0.000      0.000      0.000 
      23      0.000      0.000      0.000      0.000 
      24      0.000      7.250      0.000      0.000 
      25      0.000      7.250      0.000      0.000 
      26      0.000      0.000      0.000      0.000 
      27      0.000      0.000      0.350      0.000 
      28      0.000      7.250      0.000      0.000 
      29      0.000      0.000      0.000      0.000 
      30      0.000      0.000      0.000      0.000 
      31      0.000      0.000      0.300      0.000 
      32      0.000      7.250      0.000      0.000 
      33      0.000      7.250      0.000      0.000 
      34      0.000      0.000      0.300      0.000 
      35      0.000      0.000      0.000      0.000 
      36      2.929     -2.533      0.497      0.000 
      37      0.000      0.000      0.000      0.000 
      38      0.000      0.000      0.647      0.000 
      39      0.000      7.250      0.000      0.000 
      40      0.000      0.000      0.000      0.000 
      41      0.000      7.250      0.000      0.000 
      42      0.000      7.250      0.000      0.000 
      43      0.000      0.000      0.000      0.000 
      44      0.000      7.250      0.000      0.000 
      45      0.000      0.000      0.350      0.000 
      46      0.000      0.000      0.300      0.000 
      47      0.000      7.250      0.000      0.000 
      48      0.000      0.000      0.000      0.000 
      49      0.000      0.000      0.000      0.000 
      50      0.000      0.000      0.000      0.000 
      51      0.000      7.250      0.000      0.000 
      52      1.656     -0.768     -0.117      0.000 
      53      0.000      0.000      0.000      0.000 
      54      0.000      7.250      0.000      0.000 
      55      0.000      7.250      0.000      0.000 
      56      0.000      0.000      0.462      0.000 
      57      0.000      0.000      0.000      0.000 
      58      0.000      7.250      0.000      0.000 
      59      0.000      0.000      0.000      0.000 
      60      0.000      7.250      0.000      0.000 
      61      0.000      0.000      0.000      0.000 
      62      0.000      7.250      0.000      0.000 
      63      0.000      0.000      0.000      0.000 
      64      0.000      0.000      0.000      0.000 
      65      0.000      7.250      0.000      0.000 
      66      0.000      0.000      0.647      0.000 
      67      0.000      7.250      0.000      0.000 
      68      0.000      0.000      0.300      0.000 
      69      0.000      0.000      0.000      0.000 
      70      0.000      7.250      0.000      0.000 
      71      2.929     -2.533      0.497      0.000 
      72      0.000      0.000      0.000      0.000 
      73      0.000      0.000      0.000      0.000 
      74      0.000      0.000      0.000      0.000 
      75      0.000      7.250      0.000      0.000 
      76      0.000      0.000      0.462      0.000 
      77      0.000      0.000      0.300      0.000 
      78      0.000      7.250      0.000      0.000 
      79      0.000      7.250      0.000      0.000 
      80      0.000      0.000      0.000      0.000 
      81      0.000      7.250      0.000      0.000 
      82      0.000      7.250      0.000      0.000 
      83      1.656     -0.768     -0.117      0.000 
      84      0.000      7.250      0.000      0.000 
      85      0.000      0.000      0.000      0.000 
      86      0.000      7.250      0.000      0.000 
      87      0.000      7.250      0.000      0.000 
      88      0.000      0.000      0.000      0.000 
      89      0.000      7.250      0.000      0.000 
      90      0.000      7.250      0.000      0.000 
      91      0.000      0.000      0.000      0.000 
      92      0.000      0.000      0.000      0.000 
      93      0.000      0.000      0.000      0.000 
      94      0.000      0.000      0.647      0.000 
      95      0.000      0.000      0.000      0.000 
      96      2.074     -2.966      2.473      0.000 
      97      0.000      7.250      0.000      0.000 
      98      0.000      7.250      0.000      0.000 
      99      0.000      7.250      0.000      0.000 
     100      0.000      7.250      0.000      0.000 
     101      0.000      0.000      0.000      0.000 
     102      0.000      0.000      0.000      0.000 
     103      0.000      7.250      0.000      0.000 
     104      0.000      7.250      0.000      0.000 
     105      0.000      7.250      0.000      0.000 
     106      0.000      7.250      0.000      0.000 
     107      0.000      7.250      0.000      0.000 
     108      0.000      7.250      0.000      0.000 
     109      0.000      0.000      0.300      0.000 
     110      0.000      0.000      0.300      0.000 
     111      0.000      0.000      0.350      0.000 
     112      0.000      7.250      0.000      0.000 
     113      0.000      0.000      0.350      0.000 
     114      0.000      0.000      0.647      0.000 
     115      0.000      7.250      0.000      0.000 
     116      0.000      0.000      0.300      0.000 

Improper Coeffs 

       1      0.000      -1       2 
       2      0.000      -1       2 
       3      2.500      -1       2 
       4      0.000      -1       2 
       5      2.500      -1       2 
       6      0.000      -1       2 
       7      2.500      -1       2 
       8      0.000      -1       2 
       9      0.000      -1       2 
      10      0.000      -1       2 
      11      0.000      -1       2 
      12      0.000      -1       2 
      13      0.000      -1       2 
      14      0.000      -1       2 
      15      0.000      -1       2 
      16      2.500      -1       2 
      17      2.500      -1       2 
      18      2.500      -1       2 
      19      2.500      -1       2 
      20      2.500      -1       2 
      21      2.500      -1       2 
      22      2.500      -1       2 
      23      2.500      -1       2 
      24      2.500      -1       2 
      25      2.500      -1       2 
      26      0.000      -1       2 
      27      0.000      -1       2 
      28      0.000      -1       2 
      29      0.000      -1       2 

Atoms 

     1      1      1 -0.52770000    1.000  1.00000  0.00000
     2      1      2 1.62570000   -0.445  1.00000  0.00000
     3      1      3 -1.69340000   -0.926  1.00000  1.61964
     4      1      4 0.52290000   -2.291  0.57864  2.19118
     5      1      5 -0.32000000   -2.262  0.55381  3.76582
     6      1      6 0.61570000   -1.933 -1.26762  3.75577
     7      1      7 -0.64330000   -0.387 -1.47554  3.58767
     8      1      8 -0.32900000   -2.646 -0.94852  2.08414
     9      1      9 -0.16920000   -3.334  1.54164  1.57717
    10      1     10 -0.12790000   -4.791  1.22400  1.91592
    11      1     11 -0.07750000   -5.844  2.14031  1.33412
    12      1     12 -0.14300000   -5.573  3.18915  0.44661
    13      1     13 -0.14410000   -6.611  3.98694 -0.04366
    14      1     14 -0.14960000   -7.926  3.74482  0.34735
    15      1     15 -0.14110000   -8.206  2.70542  1.22855
    16      1     16 -0.15340000   -7.181  1.87557  1.67432
    17      1     17 -0.47350000   -0.973  2.59069 -0.58906
    18      1     18 -0.02000000   -0.625  3.74087  0.11778
    19      1     19 -0.17110000   -1.112  4.98089 -0.31204
    20      1     20 -0.08990000   -1.936  5.05762 -1.43561
    21      1     21 -0.17050000   -2.278  3.89915 -2.13631
    22      1     22 -0.03890000   -1.782  2.66645 -1.72876
    23      1     23 -0.52770000   -1.213 -0.02463 -0.68056
    24      1     24 0.69920000   -0.121  0.70240  2.18804
    25      1     25 0.15950000   -3.184  0.81873  4.28643
    26      1     26 0.15950000   -1.444  1.12862  4.21624
    27      1     27 0.17010000   -3.706 -1.21347  2.07839
    28      1     28 0.17010000   -2.168 -1.49616  1.26999
    29      1     29 0.11340000   -3.098  2.56849  1.88747
    30      1     30 0.11340000   -3.250  1.49859  0.48743
    31      1     31 0.09890000   -4.920  1.20766  3.00309
    32      1     32 0.09890000   -5.037  0.22757  1.53567
    33      1     33 0.15260000   -4.561  3.40876  0.11726
    34      1     34 0.14840000   -6.390  4.79782 -0.73309
    35      1     35 0.14910000   -8.732  4.36555 -0.03599
    36      1     36 0.14940000   -9.223  2.53715  1.57051
    37      1     37 0.14520000   -7.424  1.01309  2.29176
    38      1     38 0.16830000    0.015  3.68459  0.99417
    39      1     39 0.15830000   -0.846  5.88626  0.23014
    40      1     40 0.15400000   -2.312  6.02303 -1.76861
    41      1     41 0.15870000   -2.935  3.96053 -3.00080
    42      1     42 0.17990000   -2.028  1.77257 -2.29834

Bonds 

     1      1      2      1
     2      2      3      2
     3      3      4      3
     4      4      5      4
     5      5      6      5
     6      6      7      6
     7      7      8      4
     8      8      9      4
     9      9     10      9
    10     10     11     10
    11     11     12     11
    12     12     13     12
    13     13     14     13
    14     14     15     14
    15     15     16     11
    16     16     17      2
    17     17     18     17
    18     18     19     18
    19     19     20     19
    20     20     21     20
    21     21     22     17
    22     22     23      2
    23     23     24      3
    24     24     25      5
    25     25     26      5
    26     26     27      8
    27     27     28      8
    28     28     29      9
    29     29     30      9
    30     30     31     10
    31     31     32     10
    32     32     33     12
    33     33     34     13
    34     34     35     14
    35     35     36     15
    36     36     37     16
    37     37     38     18
    38     38     39     19
    39     39     40     20
    40     40     41     21
    41     41     42     22
    42     42      8      6
    43     43     16     15
    44     44     22     21

Angles 

     1      1      1      2      3
     2      2      2      3      4
     3      3      3      4      5
     4      4      4      5      6
     5      5      5      6      7
     6      6      3      4      8
     7      7      3      4      9
     8      8      4      9     10
     9      9      9     10     11
    10     10     10     11     12
    11     11     11     12     13
    12     12     12     13     14
    13     13     13     14     15
    14     14     10     11     16
    15     15      1      2     17
    16     16      2     17     18
    17     17     17     18     19
    18     18     18     19     20
    19     19     19     20     21
    20     20      2     17     22
    21     21      1      2     23
    22     22      2      3     24
    23     23      4      5     25
    24     24      4      5     26
    25     25      4      8     27
    26     26      4      8     28
    27     27      4      9     29
    28     28      4      9     30
    29     29      9     10     31
    30     30      9     10     32
    31     31     11     12     33
    32     32     12     13     34
    33     33     13     14     35
    34     34     14     15     36
    35     35     11     16     37
    36     36     17     18     38
    37     37     18     19     39
    38     38     19     20     40
    39     39     20     21     41
    40     40     17     22     42
    41     41     10      9     30
    42     42     29      9     30
    43     43     15     14     35
    44     44     17      2     23
    45     45     13     12     33
    46     46     20     19     39
    47     47      6      8     27
    48     48     21     20     40
    49     49     10      9     29
    50     50     16     15     36
    51     51      3      2     17
    52     52      5      4      9
    53     53     15     16     37
    54     54     22     21     41
    55     55     20     21     22
    56     56     11     10     32
    57     57      4      8      6
    58     58     17     22     21
    59     59     27      8     28
    60     60      3      2     23
    61     61      5      4      8
    62     62     14     13     34
    63     63      6      8     28
    64     64     19     18     38
    65     65     25      5     26
    66     66      4      3     24
    67     67      7      6      8
    68     68     12     11     16
    69     69      6      5     26
    70     70      6      5     25
    71     71     31     10     32
    72     72     14     15     16
    73     73      5      6      8
    74     74     18     17     22
    75     75      8      4      9
    76     76     21     22     42
    77     77     11     16     15
    78     78     11     10     31

Dihedrals

     1      1      4      3      2      1 
     2      2      5      4      3      2 
     3      3      6      5      4      3 
     4      4      7      6      5      4 
     5      5     10      9      4      3 
     6      6     11     10      9      4 
     7      7     12     11     10      9 
     8      8     13     12     11     10 
     9      9     14     13     12     11 
    10     10     15     14     13     12 
    11     11     18     17      2      1 
    12     12     19     18     17      2 
    13     13     20     19     18     17 
    14     14     21     20     19     18 
    15     15      6      8      4      3 
    16     16     24      3      4      8 
    17     17     36     15     14     13 
    18     18     31     10     11     12 
    19     19     31     10      9      4 
    20     20     24      3      2     17 
    21     21     30      9      4      5 
    22     22     25      5      4      3 
    23     23     28      8      4      5 
    24     24     40     20     19     39 
    25     25     22     17     18     19 
    26     26     32     10     11     16 
    27     27     25      5      6      7 
    28     28     39     19     18     38 
    29     29     23      2     17     18 
    30     30     23      2      3      4 
    31     31     30      9      4      8 
    32     32     33     12     13     14 
    33     33     42     22     21     41 
    34     34     32     10      9     30 
    35     35     27      8      4      9 
    36     36      9      4      3      2 
    37     37      9      4      5      6 
    38     38     27      8      6      5 
    39     39     42     22     21     20 
    40     40     32     10     11     12 
    41     41     38     18     17      2 
    42     42     20     21     22     17 
    43     43      9      4      8      6 
    44     44     15     16     11     12 
    45     45     28      8      6      7 
    46     46     32     10      9      4 
    47     47     36     15     14     35 
    48     48     22     17      2      1 
    49     49     28      8      4      3 
    50     50      7      6      8      4 
    51     51     39     19     18     17 
    52     52     22     17      2      3 
    53     53     26      5      4      9 
    54     54     33     12     11     16 
    55     55     21     22     17     18 
    56     56     29      9     10     11 
    57     57     25      5      4      8 
    58     58     41     21     22     17 
    59     59     26      5      4      3 
    60     60     42     22     17     18 
    61     61     23      2     17     22 
    62     62     41     21     20     40 
    63     63     30      9      4      3 
    64     64     28      8      4      9 
    65     65     36     15     16     11 
    66     66     26      5      6      8 
    67     67     37     16     11     12 
    68     68     29      9      4      5 
    69     69     24      3      4      5 
    70     70     16     11     12     13 
    71     71      8      4      3      2 
    72     72     10      9      4      8 
    73     73     25      5      4      9 
    74     74     26      5      4      8 
    75     75     37     16     15     14 
    76     76     30      9     10     11 
    77     77     29      9      4      8 
    78     78     37     16     11     10 
    79     79     22     21     20     19 
    80     80     10      9      4      5 
    81     81     35     14     15     16 
    82     82     35     14     13     34 
    83     83     18     17      2      3 
    84     84     21     22     17      2 
    85     85     27      8      4      3 
    86     86     15     16     11     10 
    87     87     35     14     13     12 
    88     88     27      8      4      5 
    89     89     40     20     21     22 
    90     90     38     18     19     20 
    91     91     31     10     11     16 
    92     92     24      3      2     23 
    93     93     24      3      2      1 
    94     94     28      8      6      5 
    95     95     29      9      4      3 
    96     96     17      2      3      4 
    97     97     42     22     17      2 
    98     98     39     19     20     21 
    99     99     38     18     17     22 
   100    100     37     16     15     36 
   101    101     16     11     10      9 
   102    102     24      3      4      9 
   103    103     34     13     14     15 
   104    104     16     15     14     13 
   105    105     34     13     12     33 
   106    106     33     12     11     10 
   107    107     40     20     19     18 
   108    108     41     21     20     19 
   109    109     32     10      9     29 
   110    110     31     10      9     30 
   111    111     27      8      6      7 
   112    112     14     15     16     11 
   113    113     26      5      6      7 
   114    114     25      5      6      8 
   115    115     34     13     12     11 
   116    116     31     10      9     29 

Impropers

     1      1      4      3      5      8 
     2      2      4      9      3      5 
     3      3     11     10     12     16 
     4      4      2     17      3      1 
     5      5     17      2     22     18 
     6      6      2      1      3     23 
     7      7      3      2      4     24 
     8      8      5     25      4      6 
     9      9      5     26      4      6 
    10     10      8     27      4      6 
    11     11      8      4     28      6 
    12     12      9     10      4     29 
    13     13      9     10      4     30 
    14     14     10      9     11     31 
    15     15     10      9     11     32 
    16     16     12     33     11     13 
    17     17     13     34     12     14 
    18     18     14     35     13     15 
    19     19     15     36     14     16 
    20     20     16     11     37     15 
    21     21     18     17     19     38 
    22     22     19     18     20     39 
    23     23     20     19     21     40 
    24     24     21     41     20     22 
    25     25     22     17     42     21 
    26     26      4      5      6      8 
    27     27      4      5      6      8 
    28     28      4      5      6      8 
    29     29      4      5      6      8 
