LAMMPS data file Created by LigParGen - (Written by Leela S. Dodda)

      33 atoms
      35 bonds
      56 angles
      81 dihedrals
      18 impropers
 
      33 atom types
      35 bond types
      56 angle types
      81 dihedral types
      18 improper types
 
   -3.799090    46.200910 xlo xhi
   -0.182750    49.817250 ylo yhi
   -1.894660    48.105340 zlo zhi

Masses

       1     15.999  
       2     32.060  
       3     14.007  
       4     12.011  
       5     14.007  
       6     15.999  
       7     12.011  
       8     12.011  
       9     12.011  
      10     12.011  
      11     12.011  
      12     12.011  
      13     12.011  
      14     12.011  
      15     12.011  
      16     12.011  
      17     12.011  
      18     12.011  
      19     12.011  
      20     12.011  
      21     15.999  
      22      1.008  
      23      1.008  
      24      1.008  
      25      1.008  
      26      1.008  
      27      1.008  
      28      1.008  
      29      1.008  
      30      1.008  
      31      1.008  
      32      1.008  
      33      1.008  

Pair Coeffs 

       1      0.170  2.9600000 
       2      0.250  3.5500000 
       3      0.170  3.2500000 
       4      0.070  3.5500000 
       5      0.170  3.2500000 
       6      0.140  2.9000000 
       7      0.070  3.5500000 
       8      0.070  3.5500000 
       9      0.070  3.5500000 
      10      0.070  3.5500000 
      11      0.070  3.5500000 
      12      0.070  3.5500000 
      13      0.070  3.5500000 
      14      0.070  3.5500000 
      15      0.070  3.5500000 
      16      0.070  3.5500000 
      17      0.070  3.5500000 
      18      0.070  3.5500000 
      19      0.070  3.5500000 
      20      0.070  3.5500000 
      21      0.170  2.9600000 
      22      0.000  0.0000000 
      23      0.030  2.4200000 
      24      0.030  2.4200000 
      25      0.030  2.4200000 
      26      0.030  2.4200000 
      27      0.030  2.4200000 
      28      0.030  2.4200000 
      29      0.030  2.4200000 
      30      0.030  2.4200000 
      31      0.030  2.4200000 
      32      0.030  2.4200000 
      33      0.030  2.4200000 

Bond Coeffs 

       1   700.0000     1.4400 
       2   434.0000     1.6700 
       3   427.0000     1.3810 
       4   410.0000     1.3200 
       5   462.0000     1.3990 
       6   340.0000     1.3600 
       7   385.0000     1.4600 
       8   469.0000     1.4000 
       9   469.0000     1.4000 
      10   469.0000     1.4000 
      11   469.0000     1.4000 
      12   469.0000     1.4000 
      13   469.0000     1.4240 
      14   340.0000     1.7700 
      15   469.0000     1.4000 
      16   469.0000     1.4000 
      17   469.0000     1.4000 
      18   469.0000     1.4000 
      19   469.0000     1.4000 
      20   700.0000     1.4400 
      21   434.0000     1.0100 
      22   367.0000     1.0800 
      23   367.0000     1.0800 
      24   367.0000     1.0800 
      25   367.0000     1.0800 
      26   367.0000     1.0800 
      27   367.0000     1.0800 
      28   367.0000     1.0800 
      29   367.0000     1.0800 
      30   367.0000     1.0800 
      31   367.0000     1.0800 
      32   367.0000     1.0800 
      33   546.0000     1.3670 
      34   469.0000     1.4000 
      35   469.0000     1.4000 

Angle Coeffs 

       1    120.000    107.000
       2     48.370    118.330
       3     56.000    119.440
       4     70.000    105.300
       5     70.000    108.900
       6     70.000    121.600
       7     63.000    120.000
       8     63.000    120.000
       9     63.000    120.000
      10     63.000    120.000
      11     63.000    120.000
      12     56.000    119.440
      13     74.000    107.200
      14     85.000    119.400
      15     63.000    120.000
      16     63.000    120.000
      17     63.000    120.000
      18     85.000    119.400
      19    104.000    119.000
      20    100.000    111.000
      21     35.000    120.000
      22     35.000    120.000
      23     35.000    120.000
      24     35.000    120.000
      25     35.000    120.000
      26     35.000    128.200
      27     35.000    120.000
      28     35.000    120.000
      29     35.000    120.000
      30     35.000    120.000
      31     35.000    120.000
      32     63.000    120.000
      33     35.000    120.000
      34     63.000    120.000
      35     70.000    111.900
      36     35.000    125.700
      37     35.000    120.000
      38    120.000    107.000
      39     35.000    119.800
      40     35.000    120.000
      41     35.000    120.000
      42     63.000    120.000
      43     35.000    120.000
      44     35.000    120.000
      45     35.000    120.000
      46     35.000    120.000
      47    100.000    103.000
      48     74.000    107.200
      49     63.000    120.000
      50     70.000    110.600
      51     70.000    132.100
      52     63.000    120.000
      53     70.000    103.800
      54     35.000    120.000
      55     63.000    120.000
      56     35.000    120.000

Dihedral Coeffs  

       1      0.000      0.000      0.000      0.000 
       2      0.000      2.170      0.000      0.000 
       3      0.000      7.250      0.000      0.000 
       4      0.000      7.250      0.000      0.000 
       5      0.000      5.000      0.000      0.000 
       6      0.000      2.170      0.000      0.000 
       7      0.000      7.250      0.000      0.000 
       8      0.000      7.250      0.000      0.000 
       9      0.000      7.250      0.000      0.000 
      10      0.000      0.000      0.000      0.000 
      11      0.000      7.250      0.000      0.000 
      12      0.000      7.250      0.000      0.000 
      13      0.000      7.250      0.000      0.000 
      14      0.000      7.250      0.000      0.000 
      15      0.000      7.250      0.000      0.000 
      16      0.000      7.250      0.000      0.000 
      17      0.000      0.000      0.000      0.000 
      18      1.656     -0.768     -0.117      0.000 
      19      2.074     -2.966      2.473      0.000 
      20      0.000      7.250      0.000      0.000 
      21      0.000      7.250      0.000      0.000 
      22      2.929     -2.533      0.497      0.000 
      23      0.000      7.250      0.000      0.000 
      24      0.000      7.250      0.000      0.000 
      25      0.000      7.250      0.000      0.000 
      26      0.000      7.250      0.000      0.000 
      27      0.000      2.170      0.000      0.000 
      28      0.000      7.250      0.000      0.000 
      29      0.000      7.250      0.000      0.000 
      30      0.000      7.250      0.000      0.000 
      31      0.000      7.250      0.000      0.000 
      32      0.000      7.250      0.000      0.000 
      33      0.000      7.250      0.000      0.000 
      34      0.000      2.170      0.000      0.000 
      35      0.000      7.250      0.000      0.000 
      36      0.000      7.250      0.000      0.000 
      37      1.671     -4.901      0.669      0.000 
      38      0.000      7.250      0.000      0.000 
      39      0.000      0.000      0.000      0.000 
      40      0.000      7.250      0.000      0.000 
      41      0.000      7.250      0.000      0.000 
      42      0.000      2.170      0.000      0.000 
      43      0.000      7.250      0.000      0.000 
      44      0.000      4.900      0.000      0.000 
      45      0.000      2.170      0.000      0.000 
      46      0.000      7.250      0.000      0.000 
      47      1.656     -0.768     -0.117      0.000 
      48      0.000      7.250      0.000      0.000 
      49      0.000      0.000      0.000      0.000 
      50      0.000      7.250      0.000      0.000 
      51      0.000      7.250      0.000      0.000 
      52      0.000      7.250      0.000      0.000 
      53      0.000      7.250      0.000      0.000 
      54      0.000      7.250      0.000      0.000 
      55      0.000      7.250      0.000      0.000 
      56      0.000      7.250      0.000      0.000 
      57      0.000      7.250      0.000      0.000 
      58      0.000      7.250      0.000      0.000 
      59      0.000      7.250      0.000      0.000 
      60      0.000      2.100      0.000      0.000 
      61      0.000      7.250      0.000      0.000 
      62      0.000      1.100      0.000      0.000 
      63      0.000      7.250      0.000      0.000 
      64      0.000      7.250      0.000      0.000 
      65      0.000      7.250      0.000      0.000 
      66      0.000      7.250      0.000      0.000 
      67      0.000      7.250      0.000      0.000 
      68      0.000      7.250      0.000      0.000 
      69      0.000      0.000      0.000      0.000 
      70      0.000      7.250      0.000      0.000 
      71      0.000      0.000      0.000      0.000 
      72      0.000      7.250      0.000      0.000 
      73      0.000      7.250      0.000      0.000 
      74      0.000      7.250      0.000      0.000 
      75      0.000      0.000      0.000      0.000 
      76      0.000      7.250      0.000      0.000 
      77      0.000      7.250      0.000      0.000 
      78      0.000      7.250      0.000      0.000 
      79      0.000      5.000      0.000      0.000 
      80      0.000      7.250      0.000      0.000 
      81      0.000      7.250      0.000      0.000 

Improper Coeffs 

       1      2.500      -1       2 
       2      2.500      -1       2 
       3      0.000      -1       2 
       4      2.500      -1       2 
       5      0.000      -1       2 
       6      2.500      -1       2 
       7      2.500      -1       2 
       8      2.500      -1       2 
       9      2.500      -1       2 
      10      2.500      -1       2 
      11      2.500      -1       2 
      12      2.500      -1       2 
      13      2.500      -1       2 
      14      2.500      -1       2 
      15      2.500      -1       2 
      16      2.500      -1       2 
      17      2.500      -1       2 
      18      2.500      -1       2 

Atoms 

     1      1      1 -0.52690000    1.000  1.00000  0.00000
     2      1      2 1.59610000   -0.447  1.00000  0.00000
     3      1      3 -1.56410000   -1.016  1.00000  1.57903
     4      1      4 0.52150000   -0.236  1.53343  2.59056
     5      1      5 -0.19190000   -0.458  2.76076  3.05425
     6      1      6 -0.06440000    0.432  2.93114  4.09571
     7      1      7 0.12500000    1.185  1.80204  4.25134
     8      1      8 -0.04970000    2.178  1.82835  5.32269
     9      1      9 -0.09920000    2.341  2.95856  6.14105
    10      1     10 -0.15470000    3.294  2.97407  7.16620
    11      1     11 -0.12020000    4.097  1.85746  7.38423
    12      1     12 -0.15480000    3.946  0.73087  6.58056
    13      1     13 -0.10610000    2.997  0.71424  5.55954
    14      1     14 -0.27910000    0.785  0.87851  3.30828
    15      1     15 -0.46110000   -1.030  2.56914 -0.57728
    16      1     16 -0.02220000   -0.215  3.69411 -0.43679
    17      1     17 -0.16400000   -0.693  4.93946 -0.83949
    18      1     18 -0.08090000   -1.979  5.04848 -1.37825
    19      1     19 -0.16840000   -2.784  3.91820 -1.51411
    20      1     20 -0.02210000   -2.296  2.66132 -1.16361
    21      1     21 -0.52690000   -1.188 -0.03996 -0.68715
    22      1     22 0.68690000   -1.583  0.17927  1.77592
    23      1     23 0.16960000    1.728  3.84514  5.99513
    24      1     24 0.15930000    3.411  3.85483  7.79115
    25      1     25 0.15510000    4.838  1.86760  8.17865
    26      1     26 0.15720000    4.571 -0.14273  6.74970
    27      1     27 0.15560000    2.906 -0.18275  4.95241
    28      1     28 0.20720000    1.173 -0.11721  3.15879
    29      1     29 0.17550000    0.786  3.60918 -0.01577
    30      1     30 0.15960000   -0.069  5.82156 -0.73401
    31      1     31 0.15390000   -2.350  6.02302 -1.69118
    32      1     32 0.15750000   -3.799  4.01785 -1.89466
    33      1     33 0.17710000   -2.892  1.76925 -1.34303

Bonds 

     1      1      2      1
     2      2      3      2
     3      3      4      3
     4      4      5      4
     5      5      6      5
     6      6      7      6
     7      7      8      7
     8      8      9      8
     9      9     10      9
    10     10     11     10
    11     11     12     11
    12     12     13      8
    13     13     14      4
    14     14     15      2
    15     15     16     15
    16     16     17     16
    17     17     18     17
    18     18     19     18
    19     19     20     15
    20     20     21      2
    21     21     22      3
    22     22     23      9
    23     23     24     10
    24     24     25     11
    25     25     26     12
    26     26     27     13
    27     27     28     14
    28     28     29     16
    29     29     30     17
    30     30     31     18
    31     31     32     19
    32     32     33     20
    33     33     14      7
    34     34     13     12
    35     35     20     19

Angles 

     1      1      1      2      3
     2      2      2      3      4
     3      3      3      4      5
     4      4      4      5      6
     5      5      5      6      7
     6      6      6      7      8
     7      7      7      8      9
     8      8      8      9     10
     9      9      9     10     11
    10     10     10     11     12
    11     11      7      8     13
    12     12      3      4     14
    13     13      1      2     15
    14     14      2     15     16
    15     15     15     16     17
    16     16     16     17     18
    17     17     17     18     19
    18     18      2     15     20
    19     19      1      2     21
    20     20      2      3     22
    21     21      8      9     23
    22     22      9     10     24
    23     23     10     11     25
    24     24     11     12     26
    25     25      8     13     27
    26     26      4     14     28
    27     27     15     16     29
    28     28     16     17     30
    29     29     17     18     31
    30     30     18     19     32
    31     31     15     20     33
    32     32     16     15     20
    33     33     18     17     30
    34     34      8     13     12
    35     35      5      4     14
    36     36      7     14     28
    37     37     12     11     25
    38     38      3      2     21
    39     39      4      3     22
    40     40     20     19     32
    41     41     10      9     23
    42     42      9      8     13
    43     43     12     13     27
    44     44     19     20     33
    45     45     17     16     29
    46     46     19     18     31
    47     47      3      2     15
    48     48     15      2     21
    49     49     15     20     19
    50     50      6      7     14
    51     51      8      7     14
    52     52     11     12     13
    53     53      4     14      7
    54     54     13     12     26
    55     55     18     19     20
    56     56     11     10     24

Dihedrals

     1      1      4      3      2      1 
     2      2      5      4      3      2 
     3      3      6      5      4      3 
     4      4      7      6      5      4 
     5      5      8      7      6      5 
     6      6      9      8      7      6 
     7      7     10      9      8      7 
     8      8     11     10      9      8 
     9      9     12     11     10      9 
    10     10     16     15      2      1 
    11     11     17     16     15      2 
    12     12     18     17     16     15 
    13     13     19     18     17     16 
    14     14     25     11     10      9 
    15     15     24     10      9     23 
    16     16     19     20     15     16 
    17     17     21      2      3      4 
    18     18     20     15      2      3 
    19     19     15      2      3      4 
    20     20     28     14      7      8 
    21     21     27     13     12     11 
    22     22     14      4      3      2 
    23     23     20     19     18     17 
    24     24     30     17     18     19 
    25     25     30     17     16     29 
    26     26     24     10      9      8 
    27     27     13      8      7      6 
    28     28     25     11     10     24 
    29     29     29     16     17     18 
    30     30     23      9      8      7 
    31     31     28     14      4      5 
    32     32     11     12     13      8 
    33     33     33     20     19     32 
    34     34     14      7      8     13 
    35     35      6      7     14      4 
    36     36     32     19     18     31 
    37     37     22      3      2     15 
    38     38     23      9      8     13 
    39     39     22      3      2      1 
    40     40     28     14      7      6 
    41     41     26     12     11     10 
    42     42      7     14      4      5 
    43     43     28     14      4      3 
    44     44     22      3      4     14 
    45     45     14      7      8      9 
    46     46     13      8      9     10 
    47     47     16     15      2      3 
    48     48      8      7     14      4 
    49     49     22      3      2     21 
    50     50     26     12     11     25 
    51     51     18     19     20     15 
    52     52     27     13      8      7 
    53     53     23      9     10     11 
    54     54     27     13     12     26 
    55     55     31     18     17     16 
    56     56     26     12     13      8 
    57     57     27     13      8      9 
    58     58     25     11     12     13 
    59     59     24     10     11     12 
    60     60     22      3      4      5 
    61     61     31     18     17     30 
    62     62      7     14      4      3 
    63     63     29     16     15     20 
    64     64     12     13      8      9 
    65     65     33     20     15     16 
    66     66     29     16     15      2 
    67     67     32     19     18     17 
    68     68     19     20     15      2 
    69     69     21      2     15     20 
    70     70     13     12     11     10 
    71     71     21      2     15     16 
    72     72     32     19     20     15 
    73     73     12     13      8      7 
    74     74     33     20     15      2 
    75     75     20     15      2      1 
    76     76     31     18     19     20 
    77     77     20     15     16     17 
    78     78     33     20     19     18 
    79     79     14      7      6      5 
    80     80     30     17     16     15 
    81     81     14      4      5      6 

Impropers

     1      1      8      9     13      7 
     2      2      4      3      5     14 
     3      3      2      1      3     15 
     4      4     15      2     20     16 
     5      5      2      1      3     21 
     6      6      3      2      4     22 
     7      7      9     10     23      8 
     8      8     10      9     11     24 
     9      9     11     25     10     12 
    10     10     12     26     11     13 
    11     11     13     27     12      8 
    12     12     14      4     28      7 
    13     13     16     17     29     15 
    14     14     17     18     30     16 
    15     15     18     17     19     31 
    16     16     19     18     20     32 
    17     17     20     33     19     15 
    18     18      7      6     14      8 
